TITLE = "DNS FLOW Y-SLICE"
variables = "X", "Y", "Z", "U", "V", "W", "P", "T", "D", "H", "Vorx","Vory","Vorz","VorM","Qcr","Delta","Lambda2", "SWIrlStrengthR1","SWIrlStrengthR2","SWIrlStrengthI2", "Uprime","vprime","wprime","pprime","g1prime","g2prime","g3prime", "Tprime", "Dprime","Mprime","uvprime", "UDprime", "vDprime"
ZONE T = "           0  0.00000E+00 ", I =   65, J =    1, K =   65, F =POINT
  0.0000000E+00 -8.8330740E-01  0.0000000E+00  4.1791543E-01 -2.7164494E-03 -5.1759630E-02  5.5662065E+00  1.0000000E+00  1.0000000E+00 -3.8287630E-16  1.1745640E+01  5.5780686E+00 -6.8143514E+00  1.4680269E+01 -7.7429545E+00 -4.0171482E+02  6.5883360E+00  0.0000000E+00  0.0000000E+00  0.0000000E+00  4.1791543E-01 -2.7164494E-03 -5.1759630E-02  5.5662065E+00  4.1791543E-01 -2.7164494E-03 -5.1759630E-02  1.0000000E+00 -1.1102230E-16 -2.8865799E-15 -1.1352461E-03 -4.6397934E-17  3.0158646E-19
  9.3750000E-02 -8.8330740E-01  0.0000000E+00  4.7911401E-01  2.6238505E-03 -4.6138867E-02  1.2712763E+00  1.0000000E+00  1.0000000E+00 -3.8287630E-16  1.6571700E+01 -3.4605022E+00 -5.4968995E+00  1.7799220E+01  1.8051721E+01  2.5473570E+05 -6.0863380E-01 -3.1320138E+00  1.7284066E+00  1.7284066E+00  4.7911401E-01  2.6238505E-03 -4.6138867E-02  1.2712763E+00  4.7911401E-01  2.6238505E-03 -4.6138867E-02  1.0000000E+00 -1.1102230E-16 -2.8865799E-15  1.2571235E-03 -5.3192341E-17 -2.9130592E-19
  1.8750000E-01 -8.8330740E-01  0.0000000E+00  3.4890892E-01  2.5294947E-02  4.0486699E-02 -3.3764415E+00  1.0000000E+00  1.0000000E+00 -3.8287630E-16 -3.4828777E+00 -1.1703665E+00  1.5296461E+01  1.5731558E+01  9.9923521E+00  3.9807265E+03 -1.0144241E+01 -2.7078745E-03  1.7325530E-01  1.7325530E-01  3.4890892E-01  2.5294947E-02  4.0486699E-02 -3.3764415E+00  3.4890892E-01  2.5294947E-02  4.0486699E-02  1.0000000E+00 -1.1102230E-16 -2.8865799E-15  8.8256324E-03 -3.8736671E-17 -2.8083032E-18
  2.8125000E-01 -8.8330740E-01  0.0000000E+00  2.7208639E-01  7.6766440E-02 -5.6308503E-02 -7.8355169E+00  1.0000000E+00  1.0000000E+00 -3.8287630E-16 -6.8367379E+00  2.5472250E+00 -1.1060062E+01  1.3249691E+01 -7.5985867E+00 -1.2813620E+03  7.2375146E+00  0.0000000E+00  0.0000000E+00  0.0000000E+00  2.7208639E-01  7.6766440E-02 -5.6308503E-02 -7.8355169E+00  2.7208639E-01  7.6766440E-02 -5.6308503E-02  1.0000000E+00 -1.1102230E-16 -2.8865799E-15  2.0887104E-02 -3.0207658E-17 -8.5227869E-18
  3.7500000E-01 -8.8330740E-01  0.0000000E+00  3.4959055E-01  6.0169842E-02 -6.5757958E-04 -1.2384291E+01  1.0000000E+00  1.0000000E+00 -3.8287630E-16  1.8728499E+01 -6.9133697E-01 -3.7822246E+00  1.9119096E+01  4.6074164E+01  9.2587699E+05 -4.2748240E+01 -2.7483227E+00  1.2281481E+00  1.2281481E+00  3.4959055E-01  6.0169842E-02 -6.5757958E-04 -1.2384291E+01  3.4959055E-01  6.0169842E-02 -6.5757958E-04  1.0000000E+00 -1.1102230E-16 -2.8865799E-15  2.1034808E-02 -3.8812348E-17 -6.6801944E-18
  4.6875000E-01 -8.8330740E-01  0.0000000E+00  3.1520232E-01  2.2154306E-02  1.6497576E-01 -1.6399979E+01  1.0000000E+00  1.0000000E+00 -3.8287630E-16  9.1458591E+00  1.8932263E+00  9.1081629E-01  9.3840626E+00  1.1415023E+01  1.7409154E+04 -1.2284721E+01 -1.5942284E+00  6.6533879E-01  6.6533879E-01  3.1520232E-01  2.2154306E-02  1.6497576E-01 -1.6399979E+01  3.1520232E-01  2.2154306E-02  1.6497576E-01  1.0000000E+00 -1.1102230E-16 -2.8865799E-15  6.9830887E-03 -3.4994487E-17 -2.4596221E-18
  5.6250000E-01 -8.8330740E-01  0.0000000E+00  2.1741259E-01  3.3305413E-02  1.4777144E-01 -1.9906993E+01  1.0000000E+00  1.0000000E+00 -3.8287630E-16 -6.4305028E+00  2.4738872E+00  4.5253356E+00  8.2431878E+00 -5.0423014E+00  3.4536156E+03  1.8414018E-02 -3.0236387E+00  1.4931451E+00  1.4931451E+00  2.1741259E-01  3.3305413E-02  1.4777144E-01 -1.9906993E+01  2.1741259E-01  3.3305413E-02  1.4777144E-01  1.0000000E+00 -1.1102230E-16 -2.8865799E-15  7.2410161E-03 -2.4137646E-17 -3.6976437E-18
  6.5625000E-01 -8.8330740E-01  0.0000000E+00  2.4348415E-01  3.4892142E-02  2.1775062E-02 -2.4504696E+01  1.0000000E+00  1.0000000E+00 -3.8287630E-16 -5.7355328E+00  7.3267389E+00 -1.3604206E+01  1.6481865E+01  1.2795479E+01  2.2294516E+04 -9.9195226E+00  1.4297409E+00 -8.3182180E-01 -8.3182180E-01  2.4348415E-01  3.4892142E-02  2.1775062E-02 -2.4504696E+01  2.4348415E-01  3.4892142E-02  2.1775062E-02  1.0000000E+00 -1.1102230E-16 -2.8865799E-15  8.4956834E-03 -2.7032171E-17 -3.8738059E-18
  7.5000000E-01 -8.8330740E-01  0.0000000E+00  3.3929483E-01  1.1448824E-02 -8.9284549E-03 -2.9597840E+01  1.0000000E+00  1.0000000E+00 -3.8287630E-16  6.4306318E+00  8.0099296E+00 -3.4354071E+00  1.0831160E+01 -2.5655263E+00  4.4487699E+03  2.9317504E+00 -2.6397655E+00  1.4227169E+00  1.4227169E+00  3.3929483E-01  1.1448824E-02 -8.9284549E-03 -2.9597840E+01  3.3929483E-01  1.1448824E-02 -8.9284549E-03  1.0000000E+00 -1.1102230E-16 -2.8865799E-15  3.8845267E-03 -3.7669293E-17 -1.2710748E-18
  8.4375000E-01 -8.8330740E-01  0.0000000E+00  4.0898119E-01  9.1928988E-03  6.8284292E-02 -3.4008811E+01  1.0000000E+00  1.0000000E+00 -3.8287630E-16  9.1123046E+00  4.0604363E+00 -9.6127956E+00  1.3853775E+01  8.0526166E+00  2.0738446E+05 -4.7144137E+00 -3.7065267E+00  2.0413861E+00  2.0413861E+00  4.0898119E-01  9.1928988E-03  6.8284292E-02 -3.4008811E+01  4.0898119E-01  9.1928988E-03  6.8284292E-02  1.0000000E+00 -1.1102230E-16 -2.8865799E-15  3.7597227E-03 -4.5406034E-17 -1.0206168E-18
  9.3750000E-01 -8.8330740E-01  0.0000000E+00  3.5092070E-01  1.3407420E-02  1.2594629E-01 -3.7981660E+01  1.0000000E+00  1.0000000E+00 -3.8287630E-16  4.5194558E+00  1.2789807E+00  1.1129514E+01  1.2080040E+01  3.0494931E+00  7.1869859E+03 -6.0200540E+00  2.3515572E+00 -8.2699376E-01 -8.2699376E-01  3.5092070E-01  1.3407420E-02  1.2594629E-01 -3.7981660E+01  3.5092070E-01  1.3407420E-02  1.2594629E-01  1.0000000E+00 -1.1102230E-16 -2.8865799E-15  4.7049413E-03 -3.8960025E-17 -1.4885227E-18
  1.0312500E+00 -8.8330740E-01  0.0000000E+00  2.7687601E-01  4.9620244E-02  8.0302976E-02 -4.0727387E+01  1.0000000E+00  1.0000000E+00 -3.8287630E-16 -4.2124849E+00  9.1420761E+00 -7.1929079E+00  1.2371762E+01 -6.4355700E+00  8.0386176E+04  9.8580107E+00  4.4412205E+00 -2.1005949E+00 -2.1005949E+00  2.7687601E-01  4.9620244E-02  8.0302976E-02 -4.0727387E+01  2.7687601E-01  4.9620244E-02  8.0302976E-02  1.0000000E+00 -1.1102230E-16 -2.8865799E-15  1.3738655E-02 -3.0739412E-17 -5.5089538E-18
  1.1250000E+00 -8.8330740E-01  0.0000000E+00  2.6606126E-01  6.5019818E-02  2.8327482E-02 -4.1866673E+01  1.0000000E+00  1.0000000E+00 -3.8287630E-16  2.0406372E+00  2.4338464E+00  3.4966751E+00  4.7238273E+00 -2.2533322E+00  7.2310531E+00  1.4095999E+00 -2.0401217E+00  5.4953126E-01  5.4953126E-01  2.6606126E-01  6.5019818E-02  2.8327482E-02 -4.1866673E+01  2.6606126E-01  6.5019818E-02  2.8327482E-02  1.0000000E+00 -1.1102230E-16 -2.8865799E-15  1.7299255E-02 -2.9538734E-17 -7.2186499E-18
  1.2187500E+00 -8.8330740E-01  0.0000000E+00  1.9390881E-01  1.9779566E-02  1.1966933E-01 -4.2288163E+01  1.0000000E+00  1.0000000E+00 -3.8287630E-16  9.7006916E+00 -5.4713179E+00 -1.6556811E+00  1.1259663E+01  8.1658670E+00  2.7859409E+03 -7.2470890E+00  4.6047614E-01 -3.9692030E-01 -3.9692030E-01  1.9390881E-01  1.9779566E-02  1.1966933E-01 -4.2288163E+01  1.9390881E-01  1.9779566E-02  1.1966933E-01  1.0000000E+00 -1.1102230E-16 -2.8865799E-15  3.8354322E-03 -2.1528203E-17 -2.1959730E-18
  1.3125000E+00 -8.8330740E-01  0.0000000E+00  2.0306550E-01 -6.5725476E-03  1.1259989E-01 -4.3422311E+01  1.0000000E+00  1.0000000E+00 -3.8287630E-16 -1.3981398E+01  5.4146292E+00 -5.4773427E+00  1.5962424E+01  4.2589964E+01  3.7753238E+05 -4.3899920E+01 -1.3460847E+00  3.9786269E-01  3.9786269E-01  2.0306550E-01 -6.5725476E-03  1.1259989E-01 -4.3422311E+01  2.0306550E-01 -6.5725476E-03  1.1259989E-01  1.0000000E+00 -1.1102230E-16 -2.8865799E-15 -1.3346577E-03 -2.2544800E-17  7.2969937E-19
  1.4062500E+00 -8.8330740E-01  0.0000000E+00  3.4434253E-01 -1.8314557E-02 -5.4385496E-02 -4.6473594E+01  1.0000000E+00  1.0000000E+00 -3.8287630E-16 -1.2937594E+01  3.0452589E+00 -1.7001185E+01  2.1579973E+01  3.9391952E+01  1.8802727E+06 -4.1215956E+01 -4.4155003E+00  1.9898154E+00  1.9898154E+00  3.4434253E-01 -1.8314557E-02 -5.4385496E-02 -4.6473594E+01  3.4434253E-01 -1.8314557E-02 -5.4385496E-02  1.0000000E+00 -1.1102230E-16 -2.8865799E-15 -6.3064810E-03 -3.8229701E-17  2.0333243E-18
  1.5000000E+00 -8.8330740E-01  0.0000000E+00  4.7253682E-01 -2.3590169E-02 -4.6569165E-02 -4.9315818E+01  1.0000000E+00  1.0000000E+00 -3.8287630E-16  8.9685590E+00 -3.4603490E+00 -4.0710059E+00  1.0439452E+01 -1.4885091E+01  7.1020238E+03  3.1923540E+00  4.8312883E+00 -2.0178282E+00 -2.0178282E+00  4.7253682E-01 -2.3590169E-02 -4.6569165E-02 -4.9315818E+01  4.7253682E-01 -2.3590169E-02 -4.6569165E-02  1.0000000E+00 -1.1102230E-16 -2.8865799E-15 -1.1147224E-02 -5.2462125E-17  2.6190349E-18
  1.5937500E+00 -8.8330740E-01  0.0000000E+00  3.8327619E-01  1.0035957E-02  8.1436590E-02 -5.0233591E+01  1.0000000E+00  1.0000000E+00 -3.8287630E-16  6.3418765E+00 -4.5358190E+00  8.6860070E+00  1.1672179E+01  1.3260483E+01  1.3264569E+04 -1.4413992E+01  1.1908038E+00 -1.5668601E-01 -1.5668601E-01  3.8327619E-01  1.0035957E-02  8.1436590E-02 -5.0233591E+01  3.8327619E-01  1.0035957E-02  8.1436590E-02  1.0000000E+00 -1.1102230E-16 -2.8865799E-15  3.8465434E-03 -4.2552205E-17 -1.1142151E-18
  1.6875000E+00 -8.8330740E-01  0.0000000E+00  3.4694112E-01  7.9694409E-03  5.5305918E-02 -5.1533382E+01  1.0000000E+00  1.0000000E+00 -3.8287630E-16 -7.4201067E+00  3.3408357E+00 -1.0967740E+01  1.3656884E+01  5.9169004E+00  1.8926837E+03 -6.2387879E+00  7.2626311E-01 -6.8975526E-01 -6.8975526E-01  3.4694112E-01  7.9694409E-03  5.5305918E-02 -5.1533382E+01  3.4694112E-01  7.9694409E-03  5.5305918E-02  1.0000000E+00 -1.1102230E-16 -2.8865799E-15  2.7649267E-03 -3.8518202E-17 -8.8478568E-19
  1.7812500E+00 -8.8330740E-01  0.0000000E+00  3.8455613E-01 -2.0025910E-02 -1.2352435E-02 -5.3469492E+01  1.0000000E+00  1.0000000E+00 -3.8287630E-16  1.3260758E+00  2.9355201E+00  2.9072752E-02  3.2212731E+00  2.2865709E-01  2.4914139E+00 -1.7254422E-01  6.0210340E-01 -2.3168596E-01 -2.3168596E-01  3.8455613E-01 -2.0025910E-02 -1.2352435E-02 -5.3469492E+01  3.8455613E-01 -2.0025910E-02 -1.2352435E-02  1.0000000E+00 -1.1102230E-16 -2.8865799E-15 -7.7010864E-03 -4.2694307E-17  2.2233226E-18
  1.8750000E+00 -8.8330740E-01  0.0000000E+00  3.1753195E-01  1.3360030E-02 -2.5669925E-03 -5.3663888E+01  1.0000000E+00  1.0000000E+00 -3.8287630E-16  1.8466120E+00  1.2828492E+00  2.3492574E+00  3.2518746E+00 -2.0350120E+00 -3.5172455E+01  1.5604780E+00  0.0000000E+00  0.0000000E+00  0.0000000E+00  3.1753195E-01  1.3360030E-02 -2.5669925E-03 -5.3663888E+01  3.1753195E-01  1.3360030E-02 -2.5669925E-03  1.0000000E+00 -1.1102230E-16 -2.8865799E-15  4.2422364E-03 -3.5253128E-17 -1.4832613E-18
  1.9687500E+00 -8.8330740E-01  0.0000000E+00  2.9607881E-01  3.0637457E-02 -5.5084476E-02 -5.1634781E+01  1.0000000E+00  1.0000000E+00 -3.8287630E-16 -5.1975014E+00  9.9081578E+00 -5.0388780E+00  1.2270937E+01  1.6301319E+01  3.8270064E+04 -1.4658241E+01  1.3653683E+00 -8.9212453E-01 -8.9212453E-01  2.9607881E-01  3.0637457E-02 -5.5084476E-02 -5.1634781E+01  2.9607881E-01  3.0637457E-02 -5.5084476E-02  1.0000000E+00 -1.1102230E-16 -2.8865799E-15  9.0711018E-03 -3.2871351E-17 -3.4014410E-18
  2.0625000E+00 -8.8330740E-01  0.0000000E+00  3.1037177E-01  1.4179316E-02 -5.0666639E-02 -4.7497012E+01  1.0000000E+00  1.0000000E+00 -3.8287630E-16  7.5026947E+00 -5.3353138E-01 -2.3086011E+00  7.8679554E+00 -1.6151530E+00  9.5469479E+02  2.7558002E+00 -1.9888677E+00  1.1735077E+00  1.1735077E+00  3.1037177E-01  1.4179316E-02 -5.0666639E-02 -4.7497012E+01  3.1037177E-01  1.4179316E-02 -5.0666639E-02  1.0000000E+00 -1.1102230E-16 -2.8865799E-15  4.4008592E-03 -3.4458188E-17 -1.5742203E-18
  2.1562500E+00 -8.8330740E-01  0.0000000E+00  2.8930257E-01  1.1780297E-02 -7.5144019E-03 -4.1523255E+01  1.0000000E+00  1.0000000E+00 -3.8287630E-16 -3.7400274E+00  1.6730677E+00 -8.8985871E-01  4.1927090E+00  3.3594376E+00  1.8682673E+02 -3.5071364E+00 -5.4155755E-01  8.7524277E-03  8.7524277E-03  2.8930257E-01  1.1780297E-02 -7.5144019E-03 -4.1523255E+01  2.8930257E-01  1.1780297E-02 -7.5144019E-03  1.0000000E+00 -1.1102230E-16 -2.8865799E-15  3.4080703E-03 -3.2119038E-17 -1.3078757E-18
  2.2500000E+00 -8.8330740E-01  0.0000000E+00  2.5625464E-01  1.8560564E-03 -1.0499521E-02 -3.6520019E+01  1.0000000E+00  1.0000000E+00 -3.8287630E-16 -1.3191936E-01 -5.0778617E-01 -1.1627107E+00  1.2755962E+00 -5.0587610E+00 -3.5127653E+02  4.9646487E+00  0.0000000E+00  0.0000000E+00  0.0000000E+00  2.5625464E-01  1.8560564E-03 -1.0499521E-02 -3.6520019E+01  2.5625464E-01  1.8560564E-03 -1.0499521E-02  1.0000000E+00 -1.1102230E-16 -2.8865799E-15  4.7562306E-04 -2.8449980E-17 -2.0606365E-19
  2.3437500E+00 -8.8330740E-01  0.0000000E+00  1.9985428E-01 -2.3770720E-03  8.2207749E-02 -3.2989622E+01  1.0000000E+00  1.0000000E+00 -3.8287630E-16  7.2050554E+00 -6.4831024E+00  9.7765608E-01  9.7416247E+00 -4.8251472E+00  4.2099422E+03  3.9815449E+00 -2.6326242E+00  1.8934586E+00  1.8934586E+00  1.9985428E-01 -2.3770720E-03  8.2207749E-02 -3.2989622E+01  1.9985428E-01 -2.3770720E-03  8.2207749E-02  1.0000000E+00 -1.1102230E-16 -2.8865799E-15 -4.7506800E-04 -2.2188282E-17  2.6390800E-19
  2.4375000E+00 -8.8330740E-01  0.0000000E+00  3.4536758E-01  3.5038327E-04  6.1760179E-02 -2.8401295E+01  1.0000000E+00  1.0000000E+00 -3.8287630E-16 -1.4228161E+01  3.6809366E+00 -2.2876680E+01  2.7190667E+01  3.4484990E+01  2.3879067E+06  2.0099508E+00 -4.4978985E+00  2.8508905E+00  2.8508905E+00  3.4536758E-01  3.5038327E-04  6.1760179E-02 -2.8401295E+01  3.4536758E-01  3.5038327E-04  6.1760179E-02  1.0000000E+00 -1.1102230E-16 -2.8865799E-15  1.2101102E-04 -3.8343504E-17 -3.8900358E-20
  2.5312500E+00 -8.8330740E-01  0.0000000E+00  4.4263498E-01  4.7640346E-02 -1.5717739E-01 -2.3691389E+01  1.0000000E+00  1.0000000E+00 -3.8287630E-16 -1.6864598E+01  6.1887219E+00  7.1990957E+00  1.9353086E+01  5.3653506E+01  7.0681793E+05 -4.8718944E+01  1.1105093E+00 -4.6542616E-01 -4.6542616E-01  4.4263498E-01  4.7640346E-02 -1.5717739E-01 -2.3691389E+01  4.4263498E-01  4.7640346E-02 -1.5717739E-01  1.0000000E+00 -1.1102230E-16 -2.8865799E-15  2.1087284E-02 -4.9142354E-17 -5.2891409E-18
  2.6250000E+00 -8.8330740E-01  0.0000000E+00  3.2570296E-01  7.3973865E-02 -2.3228857E-01 -1.9581729E+01  1.0000000E+00  1.0000000E+00 -3.8287630E-16  4.3113787E+00 -4.8632774E+00  4.8666308E-01  6.5173840E+00  1.7532786E+00  6.2243983E+01 -1.7294949E+00  5.6708699E-01 -3.1148300E-01 -3.1148300E-01  3.2570296E-01  7.3973865E-02 -2.3228857E-01 -1.9581729E+01  3.2570296E-01  7.3973865E-02 -2.3228857E-01  1.0000000E+00 -1.1102230E-16 -2.8865799E-15  2.4093507E-02 -3.6160293E-17 -8.2127488E-18
  2.7187500E+00 -8.8330740E-01  0.0000000E+00  3.8023958E-01  2.4519837E-02 -1.5155219E-01 -1.5637969E+01  1.0000000E+00  1.0000000E+00 -3.8287630E-16  3.7980923E+00 -4.4240755E+00 -1.3232698E+01  1.4460368E+01  1.1739564E+01  8.6522106E+03 -9.1617344E+00  6.0886066E-01 -5.0927108E-01 -5.0927108E-01  3.8023958E-01  2.4519837E-02 -1.5155219E-01 -1.5637969E+01  3.8023958E-01  2.4519837E-02 -1.5155219E-01  1.0000000E+00 -1.1102230E-16 -2.8865799E-15  9.3234124E-03 -4.2215073E-17 -2.7222488E-18
  2.8125000E+00 -8.8330740E-01  0.0000000E+00  3.5437750E-01  2.1228484E-02 -6.0735469E-02 -1.1878228E+01  1.0000000E+00  1.0000000E+00 -3.8287630E-16  8.0991524E+00 -4.6235374E+00  1.0367134E+01  1.3944563E+01  1.9513726E+01  3.8914298E+04 -1.9901150E+01  8.8749212E-01 -4.7376981E-01 -4.7376981E-01  3.5437750E-01  2.1228484E-02 -6.0735469E-02 -1.1878228E+01  3.5437750E-01  2.1228484E-02 -6.0735469E-02  1.0000000E+00 -1.1102230E-16 -2.8865799E-15  7.5228970E-03 -3.9343805E-17 -2.3568352E-18
  2.9062500E+00 -8.8330740E-01  0.0000000E+00  2.8285219E-01  1.4975762E-02  3.8532729E-02 -7.4918633E+00  1.0000000E+00  1.0000000E+00 -3.8287630E-16  7.0440296E+00 -1.8578137E+00 -7.5185912E+00  1.0468956E+01  1.5097301E+01  4.4807448E+04 -1.3750124E+01 -1.8926343E+00  8.6165804E-01  8.6165804E-01  2.8285219E-01  1.4975762E-02  3.8532729E-02 -7.4918633E+00  2.8285219E-01  1.4975762E-02  3.8532729E-02  1.0000000E+00 -1.1102230E-16 -2.8865799E-15  4.2359271E-03 -3.1402901E-17 -1.6626436E-18
  3.0000000E+00 -8.8330740E-01  0.0000000E+00  3.1340145E-01 -2.5682860E-02  2.6836556E-02 -2.6800450E+00  1.0000000E+00  1.0000000E+00 -3.8287630E-16 -7.2995731E+00  2.7955305E+00 -1.7521599E+00  8.0105444E+00  2.6551333E+00  3.2219894E+02 -3.3011204E+00 -1.2166881E+00  2.4983417E-02  2.4983417E-02  3.1340145E-01 -2.5682860E-02  2.6836556E-02 -2.6800450E+00  3.1340145E-01 -2.5682860E-02  2.6836556E-02  1.0000000E+00 -1.1102230E-16 -2.8865799E-15 -8.0490456E-03 -3.4794551E-17  2.8513702E-18
  3.0937500E+00 -8.8330740E-01  0.0000000E+00  2.2425638E-01 -2.8807268E-02  3.4127642E-03  2.8918227E+00  1.0000000E+00  1.0000000E+00 -3.8287630E-16  1.7498363E+00 -8.2530314E+00  6.7994292E+00  1.0835437E+01  3.4634884E+00  2.2190609E+04  3.7931139E-01 -2.9090901E+00  1.0961714E+00  1.0961714E+00  2.2425638E-01 -2.8807268E-02  3.4127642E-03  2.8918227E+00  2.2425638E-01 -2.8807268E-02  3.4127642E-03  1.0000000E+00 -1.1102230E-16 -2.8865799E-15 -6.4602135E-03 -2.4897459E-17  3.1982492E-18
  3.1875000E+00 -8.8330740E-01  0.0000000E+00  2.3677520E-01 -6.1912081E-02  8.8487775E-02  9.7290818E+00  1.0000000E+00  1.0000000E+00 -3.8287630E-16  4.9470221E+00 -5.8861963E+00 -1.3534195E+01  1.5565820E+01  1.8399416E+01  3.5331185E+04 -1.6501914E+01  9.3748099E-01 -5.8362537E-01 -5.8362537E-01  2.3677520E-01 -6.1912081E-02  8.8487775E-02  9.7290818E+00  2.3677520E-01 -6.1912081E-02  8.8487775E-02  1.0000000E+00 -1.1102230E-16 -2.8865799E-15 -1.4659245E-02 -2.6287327E-17  6.8736218E-18
  3.2812500E+00 -8.8330740E-01  0.0000000E+00  2.0607948E-01 -8.7061816E-02  8.8364239E-02  1.6263145E+01  1.0000000E+00  1.0000000E+00 -3.8287630E-16 -1.0174035E+01  1.2042925E+00  1.2159863E+01  1.5900427E+01  2.2293265E+01  2.5935819E+05 -1.0624751E+01  2.5685466E+00 -1.7907976E+00 -1.7907976E+00  2.0607948E-01 -8.7061816E-02  8.8364239E-02  1.6263145E+01  2.0607948E-01 -8.7061816E-02  8.8364239E-02  1.0000000E+00 -1.1102230E-16 -2.8865799E-15 -1.7941654E-02 -2.2879418E-17  9.6658033E-18
  3.3750000E+00 -8.8330740E-01  0.0000000E+00  1.5623367E-01 -8.3501368E-02  4.1918971E-02  2.0803183E+01  1.0000000E+00  1.0000000E+00 -3.8287630E-16 -3.2424228E+00 -7.9594870E-01 -1.1077373E+01  1.1569574E+01 -1.9773609E+00  6.7202447E-01  1.8563475E+00 -1.4526126E+00  9.9214718E-01  9.9214718E-01  1.5623367E-01 -8.3501368E-02  4.1918971E-02  2.0803183E+01  1.5623367E-01 -8.3501368E-02  4.1918971E-02  1.0000000E+00 -1.1102230E-16 -2.8865799E-15 -1.3045725E-02 -1.7345422E-17  9.2705141E-18
  3.4687500E+00 -8.8330740E-01  0.0000000E+00  3.8912263E-01 -7.6000983E-02  3.1273992E-02  2.3791060E+01  1.0000000E+00  1.0000000E+00 -3.8287630E-16 -5.8110945E+00 -9.6305581E-01 -1.9489693E+01  2.0360364E+01 -7.0388333E-01  5.0530712E+03  1.9910640E+00 -2.2490599E+00  1.4736064E+00  1.4736064E+00  3.8912263E-01 -7.6000983E-02  3.1273992E-02  2.3791060E+01  3.8912263E-01 -7.6000983E-02  3.1273992E-02  1.0000000E+00 -1.1102230E-16 -2.8865799E-15 -2.9573702E-02 -4.3201290E-17  8.4378041E-18
  3.5625000E+00 -8.8330740E-01  0.0000000E+00  4.4100379E-01 -4.7675074E-02  5.1256527E-02  2.6214229E+01  1.0000000E+00  1.0000000E+00 -3.8287630E-16  3.2157100E+00 -2.5619331E+00  9.3221401E+00  1.0188552E+01  3.2253026E-01  1.3025086E+03 -2.7455817E+00 -1.9762231E+00  7.9315647E-01  7.9315647E-01  4.4100379E-01 -4.7675074E-02  5.1256527E-02  2.6214229E+01  4.4100379E-01 -4.7675074E-02  5.1256527E-02  1.0000000E+00 -1.1102230E-16 -2.8865799E-15 -2.1024888E-02 -4.8961256E-17  5.2929965E-18
  3.6562500E+00 -8.8330740E-01  0.0000000E+00  3.5533991E-01 -6.2674119E-02  1.9735690E-01  2.8259060E+01  1.0000000E+00  1.0000000E+00 -3.8287630E-16  1.1981973E+01 -8.2427760E+00 -5.1804581E+00  1.5438529E+01  1.9583434E+01  7.4642307E+04 -2.3595409E+01  2.0897206E+00 -5.9750649E-01 -5.9750649E-01  3.5533991E-01 -6.2674119E-02  1.9735690E-01  2.8259060E+01  3.5533991E-01 -6.2674119E-02  1.9735690E-01  1.0000000E+00 -1.1102230E-16 -2.8865799E-15 -2.2270616E-02 -3.9450655E-17  6.9582250E-18
  3.7500000E+00 -8.8330740E-01  0.0000000E+00  3.1834299E-01 -4.6343076E-02  1.5504177E-01  2.9778192E+01  1.0000000E+00  1.0000000E+00 -3.8287630E-16 -2.1632335E+01  3.7627764E+00  4.8419009E+00  2.2484671E+01  6.3935229E+01  1.3091222E+06 -5.8992843E+01  1.4661642E+00 -7.7477647E-01 -7.7477647E-01  3.1834299E-01 -4.6343076E-02  1.5504177E-01  2.9778192E+01  3.1834299E-01 -4.6343076E-02  1.5504177E-01  1.0000000E+00 -1.1102230E-16 -2.8865799E-15 -1.4752993E-02 -3.5343171E-17  5.1451150E-18
  3.8437500E+00 -8.8330740E-01  0.0000000E+00  2.3933791E-01  1.4952567E-02 -5.0478090E-02  2.9990713E+01  1.0000000E+00  1.0000000E+00 -3.8287630E-16 -9.1589960E+00  4.3932222E+00  4.3737716E-01  1.0167542E+01  2.2492852E+01  4.6310720E+04 -2.2112945E+01  1.9308880E-01 -1.7942560E-01 -1.7942560E-01  2.3933791E-01  1.4952567E-02 -5.0478090E-02  2.9990713E+01  2.3933791E-01  1.4952567E-02 -5.0478090E-02  1.0000000E+00 -1.1102230E-16 -2.8865799E-15  3.5787160E-03 -2.6571846E-17 -1.6600684E-18
  3.9375000E+00 -8.8330740E-01  0.0000000E+00  3.6114129E-01  7.0459085E-03 -3.4572118E-02  2.8031892E+01  1.0000000E+00  1.0000000E+00 -3.8287630E-16  9.4230070E+00  1.2036388E+00 -1.9423490E+01  2.1622067E+01  4.9511764E+00  1.0874326E+05  6.7872103E+00 -3.7097656E+00  1.6464650E+00  1.6464650E+00  3.6114129E-01  7.0459085E-03 -3.4572118E-02  2.8031892E+01  3.6114129E-01  7.0459085E-03 -3.4572118E-02  1.0000000E+00 -1.1102230E-16 -2.8865799E-15  2.5445684E-03 -4.0094737E-17 -7.8225298E-19
  4.0312500E+00 -8.8330740E-01  0.0000000E+00  4.1387115E-01 -3.7002842E-02  1.0992395E-01  2.5669749E+01  1.0000000E+00  1.0000000E+00 -3.8287630E-16  9.7015832E+00 -5.0723877E-01  6.7971072E+00  1.1856588E+01  1.1975568E+00  7.0409408E+03  1.9642678E+00  2.0300512E+00 -1.5060816E+00 -1.5060816E+00  4.1387115E-01 -3.7002842E-02  1.0992395E-01  2.5669749E+01  4.1387115E-01 -3.7002842E-02  1.0992395E-01  1.0000000E+00 -1.1102230E-16 -2.8865799E-15 -1.5314409E-02 -4.5948928E-17  4.1081407E-18
  4.1250000E+00 -8.8330740E-01  0.0000000E+00  2.5120627E-01 -4.0600533E-02  2.2189091E-01  2.4792291E+01  1.0000000E+00  1.0000000E+00 -3.8287630E-16  5.0017952E+00 -1.1159182E+00  5.9414384E+00  7.8462678E+00  1.7498905E+00  1.2694678E+03  3.4282298E-01  1.6249839E+00 -7.5904047E-01 -7.5904047E-01  2.5120627E-01 -4.0600533E-02  2.2189091E-01  2.4792291E+01  2.5120627E-01 -4.0600533E-02  2.2189091E-01  1.0000000E+00 -1.1102230E-16 -2.8865799E-15 -1.0199108E-02 -2.7889498E-17  4.5075647E-18
  4.2187500E+00 -8.8330740E-01  0.0000000E+00  3.5407040E-01 -4.4608184E-02  1.8514397E-01  2.4396051E+01  1.0000000E+00  1.0000000E+00 -3.8287630E-16 -1.0191649E+01  5.6232331E+00 -2.3127877E+01  2.5891875E+01  2.8069997E+01  3.6859673E+05 -2.1516448E+01 -2.7364125E+00  1.5018318E+00  1.5018318E+00  3.5407040E-01 -4.4608184E-02  1.8514397E-01  2.4396051E+01  3.5407040E-01 -4.4608184E-02  1.8514397E-01  1.0000000E+00 -1.1102230E-16 -2.8865799E-15 -1.5794438E-02 -3.9309711E-17  4.9525033E-18
  4.3125000E+00 -8.8330740E-01  0.0000000E+00  5.3722209E-01 -5.5806823E-02  5.4598506E-02  2.3694651E+01  1.0000000E+00  1.0000000E+00 -3.8287630E-16 -8.8086966E+00  3.8139316E+00 -2.8818226E+00  1.0022181E+01  1.8353252E+01  2.8572889E+04 -1.8930299E+01 -8.2453500E-01  1.6436813E-01  1.6436813E-01  5.3722209E-01 -5.5806823E-02  5.4598506E-02  2.3694651E+01  5.3722209E-01 -5.5806823E-02  5.4598506E-02  1.0000000E+00 -1.1102230E-16 -2.8865799E-15 -2.9980658E-02 -5.9643634E-17  6.1958020E-18
  4.4062500E+00 -8.8330740E-01  0.0000000E+00  5.7562967E-01 -7.5326659E-02  3.0896700E-02  2.2507455E+01  1.0000000E+00  1.0000000E+00 -3.8287630E-16  8.0210696E-01 -5.5327803E-01 -7.1929361E+00  7.2586377E+00 -9.3426252E+00  2.5757237E+04  3.0040474E+00  4.1741865E+00 -2.0536514E+00 -2.0536514E+00  5.7562967E-01 -7.5326659E-02  3.0896700E-02  2.2507455E+01  5.7562967E-01 -7.5326659E-02  3.0896700E-02  1.0000000E+00 -1.1102230E-16 -2.8865799E-15 -4.3360260E-02 -6.3907731E-17  8.3629391E-18
  4.5000000E+00 -8.8330740E-01  0.0000000E+00  4.2614313E-01 -3.5834477E-02  4.1832508E-02  2.1173904E+01  1.0000000E+00  1.0000000E+00 -3.8287630E-16 -5.1600544E+00  1.5025725E-03  1.9645971E+01  2.0312319E+01  2.2127608E+01  4.2076845E+04 -2.1034459E+01  3.8908331E-01  2.3329867E-01  2.3329867E-01  4.2614313E-01 -3.5834477E-02  4.1832508E-02  2.1173904E+01  4.2614313E-01 -3.5834477E-02  4.1832508E-02  1.0000000E+00 -1.1102230E-16 -2.8865799E-15 -1.5270616E-02 -4.7311392E-17  3.9784261E-18
  4.5937500E+00 -8.8330740E-01  0.0000000E+00  2.0886653E-01  5.2738469E-02 -8.0885827E-03  2.0793016E+01  1.0000000E+00  1.0000000E+00 -3.8287630E-16 -4.9044461E+00  2.1479328E+00  1.5105497E+00  5.5631796E+00  1.2086967E+00  2.0306149E+02 -2.2223591E+00  1.4077454E+00 -2.5922751E-02 -2.5922751E-02  2.0886653E-01  5.2738469E-02 -8.0885827E-03  2.0793016E+01  2.0886653E-01  5.2738469E-02 -8.0885827E-03  1.0000000E+00 -1.1102230E-16 -2.8865799E-15  1.1015301E-02 -2.3188843E-17 -5.8551463E-18
  4.6875000E+00 -8.8330740E-01  0.0000000E+00  2.8681956E-01  7.6564709E-02 -4.7015703E-02  2.1710142E+01  1.0000000E+00  1.0000000E+00 -3.8287630E-16 -1.8472963E+00 -1.7358970E+00 -1.4578871E+01  1.4797612E+01 -2.7097245E+00 -2.8267058E+01  2.1345360E+00  0.0000000E+00  0.0000000E+00  0.0000000E+00  2.8681956E-01  7.6564709E-02 -4.7015703E-02  2.1710142E+01  2.8681956E-01  7.6564709E-02 -4.7015703E-02  1.0000000E+00 -1.1102230E-16 -2.8865799E-15  2.1960256E-02 -3.1843368E-17 -8.5003902E-18
  4.7812500E+00 -8.8330740E-01  0.0000000E+00  3.7040318E-01  7.7598664E-02 -1.1577217E-01  2.2979022E+01  1.0000000E+00  1.0000000E+00 -3.8287630E-16 -7.8899868E+00  4.4460724E+00  5.1765264E-01  9.0712412E+00  1.0297597E+01  4.3554291E+03 -1.0242196E+01 -1.1658134E-01 -4.6720250E-02 -4.6720250E-02  3.7040318E-01  7.7598664E-02 -1.1577217E-01  2.2979022E+01  3.7040318E-01  7.7598664E-02 -1.1577217E-01  1.0000000E+00 -1.1102230E-16 -2.8865799E-15  2.8742792E-02 -4.1123014E-17 -8.6151823E-18
  4.8750000E+00 -8.8330740E-01  0.0000000E+00  3.6092488E-01  5.5687856E-02 -1.8351253E-01  2.2828085E+01  1.0000000E+00  1.0000000E+00 -3.8287630E-16 -2.8235832E+00  4.3841027E+00 -5.2530397E+00  7.4018514E+00  4.9695736E+00  5.5032021E+02 -5.1151028E+00 -3.4892970E-01  9.8662915E-02  9.8662915E-02  3.6092488E-01  5.5687856E-02 -1.8351253E-01  2.2828085E+01  3.6092488E-01  5.5687856E-02 -1.8351253E-01  1.0000000E+00 -1.1102230E-16 -2.8865799E-15  2.0099133E-02 -4.0070711E-17 -6.1825940E-18
  4.9687500E+00 -8.8330740E-01  0.0000000E+00  3.1860849E-01  6.9977118E-02 -2.1283922E-01  2.0725556E+01  1.0000000E+00  1.0000000E+00 -3.8287630E-16 -5.1010802E+00 -4.1949597E+00  4.2234400E+00  7.8393974E+00  4.0720340E+00  1.6866355E+04 -7.2565324E+00  2.4588542E+00 -1.2236077E+00 -1.2236077E+00  3.1860849E-01  6.9977118E-02 -2.1283922E-01  2.0725556E+01  3.1860849E-01  6.9977118E-02 -2.1283922E-01  1.0000000E+00 -1.1102230E-16 -2.8865799E-15  2.2295304E-02 -3.5372648E-17 -7.7690207E-18
  5.0625000E+00 -8.8330740E-01  0.0000000E+00  3.1637472E-01  7.8608381E-02 -1.8063429E-01  1.9680033E+01  1.0000000E+00  1.0000000E+00 -3.8287630E-16  6.8817654E+00 -2.2802736E+00 -9.7761057E+00  1.2170891E+01  1.1425538E+01  1.2109504E+04 -1.1685323E+01 -1.3569109E+00  4.1822250E-01  4.1822250E-01  3.1637472E-01  7.8608381E-02 -1.8063429E-01  1.9680033E+01  3.1637472E-01  7.8608381E-02 -1.8063429E-01  1.0000000E+00 -1.1102230E-16 -2.8865799E-15  2.4869704E-02 -3.5124650E-17 -8.7272835E-18
  5.1562500E+00 -8.8330740E-01  0.0000000E+00  3.3810887E-01  1.5963493E-02 -4.7150955E-02  2.1566205E+01  1.0000000E+00  1.0000000E+00 -3.8287630E-16  9.7706311E+00 -3.5151438E+00  1.0242473E+00  1.0434105E+01  1.2593915E+01  1.2980993E+04 -8.6236440E+00  8.4849106E-01 -6.6937325E-01 -6.6937325E-01  3.3810887E-01  1.5963493E-02 -4.7150955E-02  2.1566205E+01  3.3810887E-01  1.5963493E-02 -4.7150955E-02  1.0000000E+00 -1.1102230E-16 -2.8865799E-15  5.3973985E-03 -3.7537625E-17 -1.7723037E-18
  5.2500000E+00 -8.8330740E-01  0.0000000E+00  3.1845067E-01 -1.5528333E-02 -4.3259059E-02  2.2481950E+01  1.0000000E+00  1.0000000E+00 -3.8287630E-16 -8.9515162E+00  3.8696741E+00 -4.5035311E+00  1.0741779E+01 -4.9310465E+00  5.4863575E+03 -1.1528121E+00 -3.5034907E+00  1.1067709E+00  1.1067709E+00  3.1845067E-01 -1.5528333E-02 -4.3259059E-02  2.2481950E+01  3.1845067E-01 -1.5528333E-02 -4.3259059E-02  1.0000000E+00 -1.1102230E-16 -2.8865799E-15 -4.9450081E-03 -3.5355127E-17  1.7239913E-18
  5.3437500E+00 -8.8330740E-01  0.0000000E+00  4.0448032E-01 -3.8531086E-02 -6.2963272E-02  2.0543225E+01  1.0000000E+00  1.0000000E+00 -3.8287630E-16  9.8635011E+00  4.5872121E+00 -1.0840941E+01  1.5357642E+01  1.5846026E+01  3.1612139E+05 -1.2996422E+01 -3.7096156E+00  1.7371793E+00  1.7371793E+00  4.0448032E-01 -3.8531086E-02 -6.2963272E-02  2.0543225E+01  4.0448032E-01 -3.8531086E-02 -6.2963272E-02  1.0000000E+00 -1.1102230E-16 -2.8865799E-15 -1.5585066E-02 -4.4906337E-17  4.2778099E-18
  5.4375000E+00 -8.8330740E-01  0.0000000E+00  3.9855862E-01 -5.4237368E-02  6.1676987E-02  1.8709132E+01  1.0000000E+00  1.0000000E+00 -3.8287630E-16  1.1615219E+01  2.0059168E-01  6.4035849E+00  1.3264970E+01  2.1941642E+01  3.7265166E+05 -1.9668388E+01  3.4430147E+00 -1.5683150E+00 -1.5683150E+00  3.9855862E-01 -5.4237368E-02  6.1676987E-02  1.8709132E+01  3.9855862E-01 -5.4237368E-02  6.1676987E-02  1.0000000E+00 -1.1102230E-16 -2.8865799E-15 -2.1616771E-02 -4.4248896E-17  6.0215574E-18