TITLE = "DNS FLOW Y-SLICE"
variables = "X", "Y", "Z", "U", "V", "W", "P", "T", "D", "H", "Vorx","Vory","Vorz","VorM","Qcr","Delta","Lambda2", "SWIrlStrengthR1","SWIrlStrengthR2","SWIrlStrengthI2", "Uprime","vprime","wprime","pprime","g1prime","g2prime","g3prime", "Tprime", "Dprime","Mprime","uvprime", "UDprime", "vDprime"
ZONE T = "           0  0.00000E+00 ", I =   65, J =    1, K =   65, F =POINT
  0.0000000E+00 -6.1345923E-02  0.0000000E+00  1.5904290E+00  1.0561711E-01  1.9317067E-01 -2.0981068E+01  1.0000000E+00  1.0000000E+00 -3.8287630E-16 -2.4884231E+00  3.1276949E+00 -2.6100947E+00  4.7736065E+00 -6.2668583E+00 -3.7197997E+02  3.0634698E+00  0.0000000E+00  0.0000000E+00  0.0000000E+00  1.5904290E+00  1.0561711E-01  1.9317067E-01 -2.0981068E+01  1.5904290E+00  1.0561711E-01  1.9317067E-01  1.0000000E+00 -1.1102230E-16 -2.8865799E-15  1.6797651E-01 -1.7657309E-16 -1.1725855E-17
  9.3750000E-02 -6.1345923E-02  0.0000000E+00  1.5302367E+00  5.9489794E-02 -7.7262242E-03 -2.7731826E+01  1.0000000E+00  1.0000000E+00 -3.8287630E-16 -8.1680378E-01  1.9766032E+01 -4.1032860E-02  1.9782944E+01  7.0219622E+01  1.9975248E+06 -6.8020082E+01  2.0871774E+00 -9.5382037E-01 -9.5382037E-01  1.5302367E+00  5.9489794E-02 -7.7262242E-03 -2.7731826E+01  1.5302367E+00  5.9489794E-02 -7.7262242E-03  1.0000000E+00 -1.1102230E-16 -2.8865799E-15  9.1033468E-02 -1.6989041E-16 -6.6046939E-18
  1.8750000E-01 -6.1345923E-02  0.0000000E+00  1.5130214E+00  1.8014706E-01 -1.3082326E-01 -2.7555520E+01  1.0000000E+00  1.0000000E+00 -3.8287630E-16  2.6887485E-01  1.0089625E+00  2.0203754E+00  2.2742506E+00 -2.2436071E+00  4.7300879E+01  1.2370750E+00  1.9900999E+00 -7.0905638E-01 -7.0905638E-01  1.5130214E+00  1.8014706E-01 -1.3082326E-01 -2.7555520E+01  1.5130214E+00  1.8014706E-01 -1.3082326E-01  1.0000000E+00 -1.1102230E-16 -2.8865799E-15  2.7256635E-01 -1.6797912E-16 -2.0000341E-17
  2.8125000E-01 -6.1345923E-02  0.0000000E+00  1.4587428E+00  2.5572812E-01 -1.1477710E-01 -2.0722029E+01  1.0000000E+00  1.0000000E+00 -3.8287630E-16 -2.4754108E-01  3.3863420E+00  6.0071385E-01  3.4481076E+00 -3.2038913E+00 -1.9261498E+02  2.0864889E+00  0.0000000E+00  0.0000000E+00  0.0000000E+00  1.4587428E+00  2.5572812E-01 -1.1477710E-01 -2.0722029E+01  1.4587428E+00  2.5572812E-01 -1.1477710E-01  1.0000000E+00 -1.1102230E-16 -2.8865799E-15  3.7304156E-01 -1.6195299E-16 -2.8391525E-17
  3.7500000E-01 -6.1345923E-02  0.0000000E+00  1.4404128E+00  5.2052816E-02 -3.8233668E-02 -1.7199389E+01  1.0000000E+00  1.0000000E+00 -3.8287630E-16  1.4455416E-01 -2.9388735E+00 -5.0107699E+00  5.8108251E+00 -8.1094284E+00  9.0859344E+03  9.9212987E+00  3.1468756E+00 -2.3810570E+00 -2.3810570E+00  1.4404128E+00  5.2052816E-02 -3.8233668E-02 -1.7199389E+01  1.4404128E+00  5.2052816E-02 -3.8233668E-02  1.0000000E+00 -1.1102230E-16 -2.8865799E-15  7.4977543E-02 -1.5991795E-16 -5.7790235E-18
  4.6875000E-01 -6.1345923E-02  0.0000000E+00  1.3222222E+00 -2.3478509E-02  1.4510808E-01 -1.8900570E+01  1.0000000E+00  1.0000000E+00 -3.8287630E-16  4.4316673E-01 -1.1641507E+01  6.6602373E+00  1.3419383E+01  2.6184146E+01  6.5643630E+05 -2.5831728E+01 -3.0839914E+00  2.4588434E+00  2.4588434E+00  1.3222222E+00 -2.3478509E-02  1.4510808E-01 -1.8900570E+01  1.3222222E+00 -2.3478509E-02  1.4510808E-01  1.0000000E+00 -1.1102230E-16 -2.8865799E-15 -3.1043805E-02 -1.4679615E-16  2.6066381E-18
  5.6250000E-01 -6.1345923E-02  0.0000000E+00  1.5579686E+00  2.4874124E-02  1.0108986E-01 -1.5864493E+01  1.0000000E+00  1.0000000E+00 -3.8287630E-16 -1.7492101E+01  6.9774896E+00 -1.3888340E+01  2.3399679E+01  7.7201194E+01  2.3811846E+07 -8.1514474E+01 -6.5072089E+00  4.1088329E+00  4.1088329E+00  1.5579686E+00  2.4874124E-02  1.0108986E-01 -1.5864493E+01  1.5579686E+00  2.4874124E-02  1.0108986E-01  1.0000000E+00 -1.1102230E-16 -2.8865799E-15  3.8753106E-02 -1.7296927E-16 -2.7615825E-18
  6.5625000E-01 -6.1345923E-02  0.0000000E+00  1.8654747E+00  1.2435610E-01 -2.4082172E-01 -1.4868295E+01  1.0000000E+00  1.0000000E+00 -3.8287630E-16 -2.0943900E+01  1.1088286E+01  5.4465593E+00  2.4315880E+01  1.2114849E+02  7.2931505E+06 -1.2085073E+02  5.5590619E-01 -4.7943516E-01 -4.7943516E-01  1.8654747E+00  1.2435610E-01 -2.4082172E-01 -1.4868295E+01  1.8654747E+00  1.2435610E-01 -2.4082172E-01  1.0000000E+00 -1.1102230E-16 -2.8865799E-15  2.3198316E-01 -2.0710930E-16 -1.3806300E-17
  7.5000000E-01 -6.1345923E-02  0.0000000E+00  1.6902118E+00  2.5729516E-01 -3.4690680E-01 -2.3060162E+01  1.0000000E+00  1.0000000E+00 -3.8287630E-16  2.2992352E+00 -1.0072277E+01  2.6059398E+00  1.0654960E+01  1.7647501E+01  5.7598479E+04 -1.7539499E+01 -1.9327596E+00  7.0043014E-01  7.0043014E-01  1.6902118E+00  2.5729516E-01 -3.4690680E-01 -2.3060162E+01  1.6902118E+00  2.5729516E-01 -3.4690680E-01  1.0000000E+00 -1.1102230E-16 -2.8865799E-15  4.3488330E-01 -1.8765120E-16 -2.8565501E-17
  8.4375000E-01 -6.1345923E-02  0.0000000E+00  1.7480423E+00  8.3635229E-03 -1.4765894E-01 -3.2249507E+01  1.0000000E+00  1.0000000E+00 -3.8287630E-16  9.6912999E+00 -9.0260045E+00 -1.0292448E+01  1.6772732E+01  6.7740732E+01  1.4244805E+06 -6.8357232E+01 -1.4819934E+00  3.4375448E-01  3.4375448E-01  1.7480423E+00  8.3635229E-03 -1.4765894E-01 -3.2249507E+01  1.7480423E+00  8.3635229E-03 -1.4765894E-01  1.0000000E+00 -1.1102230E-16 -2.8865799E-15  1.4619792E-02 -1.9407168E-16 -9.2853757E-19
  9.3750000E-01 -6.1345923E-02  0.0000000E+00  1.6755110E+00 -3.1252379E-02  7.1021288E-02 -3.8420795E+01  1.0000000E+00  1.0000000E+00 -3.8287630E-16  9.7785311E+00 -1.0339827E+01  1.1384819E+01  1.8224868E+01  7.5900439E+01  2.2919548E+06 -7.5569125E+01  1.8085041E+00 -8.8027091E-01 -8.8027091E-01  1.6755110E+00 -3.1252379E-02  7.1021288E-02 -3.8420795E+01  1.6755110E+00 -3.1252379E-02  7.1021288E-02  1.0000000E+00 -1.1102230E-16 -2.8865799E-15 -5.2363704E-02 -1.8601909E-16  3.4697111E-18
  1.0312500E+00 -6.1345923E-02  0.0000000E+00  1.5193150E+00  4.6081928E-02  1.4734446E-01 -4.1923807E+01  1.0000000E+00  1.0000000E+00 -3.8287630E-16  1.7808530E+00 -1.7252113E-02 -5.0483354E+00  5.3532631E+00  1.9359449E+00  2.1880593E+03 -2.4376627E+00  1.7194437E+00 -9.3099068E-01 -9.3099068E-01  1.5193150E+00  4.6081928E-02  1.4734446E-01 -4.1923807E+01  1.5193150E+00  4.6081928E-02  1.4734446E-01  1.0000000E+00 -1.1102230E-16 -2.8865799E-15  7.0012963E-02 -1.6867784E-16 -5.1161218E-18
  1.1250000E+00 -6.1345923E-02  0.0000000E+00  1.5698323E+00 -1.5092123E-02 -1.7595192E-03 -4.3752887E+01  1.0000000E+00  1.0000000E+00 -3.8287630E-16 -8.5543843E+00  5.4088071E+00  1.6775380E+00  1.0258987E+01  1.6749268E+01  2.8630371E+04 -1.7746999E+01 -1.4330210E+00  2.1813871E-01  2.1813871E-01  1.5698323E+00 -1.5092123E-02 -1.7595192E-03 -4.3752887E+01  1.5698323E+00 -1.5092123E-02 -1.7595192E-03  1.0000000E+00 -1.1102230E-16 -2.8865799E-15 -2.3692103E-02 -1.7428640E-16  1.6755622E-18
  1.2187500E+00 -6.1345923E-02  0.0000000E+00  1.3666241E+00  1.0583203E-01 -6.5952514E-02 -4.2401357E+01  1.0000000E+00  1.0000000E+00 -3.8287630E-16 -2.4987941E+00 -1.6202639E+01  7.1391515E+00  1.7881190E+01  3.4013718E+01  4.9330264E+05 -2.4259311E+01 -2.6885174E+00  1.3619608E+00  1.3619608E+00  1.3666241E+00  1.0583203E-01 -6.5952514E-02 -4.2401357E+01  1.3666241E+00  1.0583203E-01 -6.5952514E-02  1.0000000E+00 -1.1102230E-16 -2.8865799E-15  1.4463261E-01 -1.5172575E-16 -1.1749716E-17
  1.3125000E+00 -6.1345923E-02  0.0000000E+00  1.3271836E+00  8.8013799E-02  1.8424939E-02 -3.4196616E+01  1.0000000E+00  1.0000000E+00 -3.8287630E-16  3.0672819E+00 -9.5369320E+00 -6.6456479E+00  1.2021894E+01  2.1765546E+01  4.2658890E+04 -2.2385022E+01  2.3214920E-01 -3.1230983E-01 -3.1230983E-01  1.3271836E+00  8.8013799E-02  1.8424939E-02 -3.4196616E+01  1.3271836E+00  8.8013799E-02  1.8424939E-02  1.0000000E+00 -1.1102230E-16 -2.8865799E-15  1.1681047E-01 -1.4734697E-16 -9.7714947E-18
  1.4062500E+00 -6.1345923E-02  0.0000000E+00  1.2501525E+00 -1.5055850E-02  2.0139631E-02 -2.2491669E+01  1.0000000E+00  1.0000000E+00 -3.8287630E-16 -3.6959854E+00  1.2750641E+00  6.5670709E+00  7.6428082E+00 -1.1695628E+00  1.0050286E+04  3.7432184E+00  2.3138490E+00 -1.8967301E+00 -1.8967301E+00  1.2501525E+00 -1.5055850E-02  2.0139631E-02 -2.2491669E+01  1.2501525E+00 -1.5055850E-02  2.0139631E-02  1.0000000E+00 -1.1102230E-16 -2.8865799E-15 -1.8822109E-02 -1.3879481E-16  1.6715351E-18
  1.5000000E+00 -6.1345923E-02  0.0000000E+00  1.1602208E+00 -1.0145540E-01  3.1566421E-02 -1.4419826E+01  1.0000000E+00  1.0000000E+00 -3.8287630E-16 -6.7833213E+00 -2.8200998E+00 -5.8922625E+00  9.4172803E+00 -7.1767859E+00  1.1796312E+04  9.3121696E+00  3.9326991E+00 -1.5079562E+00 -1.5079562E+00  1.1602208E+00 -1.0145540E-01  3.1566421E-02 -1.4419826E+01  1.1602208E+00 -1.0145540E-01  3.1566421E-02  1.0000000E+00 -1.1102230E-16 -2.8865799E-15 -1.1771067E-01 -1.2881039E-16  1.1263813E-17
  1.5937500E+00 -6.1345923E-02  0.0000000E+00  1.5802915E+00 -1.4170196E-01  2.1125054E-02 -7.9690140E+00  1.0000000E+00  1.0000000E+00 -3.8287630E-16 -1.0820883E+01 -1.1655053E+00 -9.1160144E+00  1.4196888E+01 -3.4695292E+00  5.5723770E+05 -9.9226426E-01 -5.1684825E+00  3.0093719E+00  3.0093719E+00  1.5802915E+00 -1.4170196E-01  2.1125054E-02 -7.9690140E+00  1.5802915E+00 -1.4170196E-01  2.1125054E-02  1.0000000E+00 -1.1102230E-16 -2.8865799E-15 -2.2393039E-01 -1.7544760E-16  1.5732078E-17
  1.6875000E+00 -6.1345923E-02  0.0000000E+00  1.6865030E+00 -7.7570358E-02  2.8418490E-02 -4.6211214E-01  1.0000000E+00  1.0000000E+00 -3.8287630E-16  2.3286138E+00 -5.7238746E+00  6.6148753E+00  9.0521687E+00  1.0131649E+01  5.6648793E+03 -7.7570991E+00  5.0963868E-01 -6.0486566E-01 -6.0486566E-01  1.6865030E+00 -7.7570358E-02  2.8418490E-02 -4.6211214E-01  1.6865030E+00 -7.7570358E-02  2.8418490E-02  1.0000000E+00 -1.1102230E-16 -2.8865799E-15 -1.3082264E-01 -1.8723945E-16  8.6120397E-18
  1.7812500E+00 -6.1345923E-02  0.0000000E+00  1.4920016E+00 -1.4634325E-01  2.1629240E-01  7.3993582E+00  1.0000000E+00  1.0000000E+00 -3.8287630E-16  6.6105305E+00 -1.4166438E+01 -2.1168406E+00  1.5775553E+01  5.5992379E+01  1.2638866E+06 -5.7795385E+01  2.6478193E+00 -8.8716187E-01 -8.8716187E-01  1.4920016E+00 -1.4634325E-01  2.1629240E-01  7.3993582E+00  1.4920016E+00 -1.4634325E-01  2.1629240E-01  1.0000000E+00 -1.1102230E-16 -2.8865799E-15 -2.1834436E-01 -1.6564545E-16  1.6247364E-17
  1.8750000E+00 -6.1345923E-02  0.0000000E+00  1.4319927E+00 -1.0625349E-01  1.6115776E-01  1.4826686E+01  1.0000000E+00  1.0000000E+00 -3.8287630E-16 -2.0340448E+01  5.9927673E+00  4.5587408E+00  2.1689380E+01  7.6062824E+01  2.6719956E+06 -7.5035579E+01  2.0958739E+00 -1.3083473E+00 -1.3083473E+00  1.4319927E+00 -1.0625349E-01  1.6115776E-01  1.4826686E+01  1.4319927E+00 -1.0625349E-01  1.6115776E-01  1.0000000E+00 -1.1102230E-16 -2.8865799E-15 -1.5215422E-01 -1.5898313E-16  1.1796507E-17
  1.9687500E+00 -6.1345923E-02  0.0000000E+00  1.3507767E+00  3.7147507E-02 -4.1672805E-02  1.5501124E+01  1.0000000E+00  1.0000000E+00 -3.8287630E-16 -8.6055155E+00  5.8177319E+00  7.6167365E-01  1.0415424E+01  5.2264527E+00  6.1211457E+02 -4.6301091E+00  1.8203695E-01 -1.8328098E-01 -1.8328098E-01  1.3507767E+00  3.7147507E-02 -4.1672805E-02  1.5501124E+01  1.3507767E+00  3.7147507E-02 -4.1672805E-02  1.0000000E+00 -1.1102230E-16 -2.8865799E-15  5.0177986E-02 -1.4996634E-16 -4.1242018E-18
  2.0625000E+00 -6.1345923E-02  0.0000000E+00  1.6065592E+00 -1.1598537E-01 -6.0679368E-03  7.0229808E+00  1.0000000E+00  1.0000000E+00 -3.8287630E-16  6.0419365E+00  4.6880793E+00 -1.2790231E+01  1.4902117E+01  2.3568499E+01  3.0483587E+05 -2.6917933E+01 -3.0882813E+00  1.3813593E+00  1.3813593E+00  1.6065592E+00 -1.1598537E-01 -6.0679368E-03  7.0229808E+00  1.6065592E+00 -1.1598537E-01 -6.0679368E-03  1.0000000E+00 -1.1102230E-16 -2.8865799E-15 -1.8633736E-01 -1.7836390E-16  1.2876962E-17
  2.1562500E+00 -6.1345923E-02  0.0000000E+00  1.6342648E+00 -2.3945184E-01  1.1998304E-01  3.7180031E-01  1.0000000E+00  1.0000000E+00 -3.8287630E-16  9.3782503E+00  3.1508131E-02  8.8833482E+00  1.2917680E+01  1.0026481E+01  5.2520156E+05 -1.2523863E+01  4.2036219E+00 -2.5921129E+00 -2.5921129E+00  1.6342648E+00 -2.3945184E-01  1.1998304E-01  3.7180031E-01  1.6342648E+00 -2.3945184E-01  1.1998304E-01  1.0000000E+00 -1.1102230E-16 -2.8865799E-15 -3.9132770E-01 -1.8143984E-16  2.6584495E-17
  2.2500000E+00 -6.1345923E-02  0.0000000E+00  1.2822446E+00 -1.9292410E-01  2.4033580E-01  1.8346469E+00  1.0000000E+00  1.0000000E+00 -3.8287630E-16  4.9138724E+00 -7.1651326E-01  3.2803519E+00  5.9514908E+00  2.0224314E+00  2.0794737E+04 -6.4756343E+00  2.9630932E+00 -1.2360531E+00 -1.2360531E+00  1.2822446E+00 -1.9292410E-01  2.4033580E-01  1.8346469E+00  1.2822446E+00 -1.9292410E-01  2.4033580E-01  1.0000000E+00 -1.1102230E-16 -2.8865799E-15 -2.4737588E-01 -1.4235775E-16  2.1418878E-17
  2.3437500E+00 -6.1345923E-02  0.0000000E+00  1.4919531E+00 -2.3630630E-01  1.5419147E-01  5.2771526E+00  1.0000000E+00  1.0000000E+00 -3.8287630E-16 -6.9581022E+00  1.0898241E+01 -1.1429529E+01  1.7257491E+01  4.5867609E+01  9.8745761E+05 -3.7172816E+01 -2.4876060E+00  1.7010447E+00  1.7010447E+00  1.4919531E+00 -2.3630630E-01  1.5419147E-01  5.2771526E+00  1.4919531E+00 -2.3630630E-01  1.5419147E-01  1.0000000E+00 -1.1102230E-16 -2.8865799E-15 -3.5255793E-01 -1.6564007E-16  2.6235270E-17
  2.4375000E+00 -6.1345923E-02  0.0000000E+00  1.8384639E+00 -2.9550376E-01 -4.6777068E-02  8.6355621E+00  1.0000000E+00  1.0000000E+00 -3.8287630E-16 -8.0384682E+00  6.8413478E+00 -1.5100332E+00  1.0663077E+01  2.1883029E+01  5.4999379E+04 -2.2805895E+01 -1.0710206E+00  3.8405361E-01  3.8405361E-01  1.8384639E+00 -2.9550376E-01 -4.6777068E-02  8.6355621E+00  1.8384639E+00 -2.9550376E-01 -4.6777068E-02  1.0000000E+00 -1.1102230E-16 -2.8865799E-15 -5.4327299E-01 -2.0411050E-16  3.2807508E-17
  2.5312500E+00 -6.1345923E-02  0.0000000E+00  1.9066517E+00 -4.2237834E-01 -5.4691396E-02  1.2741759E+01  1.0000000E+00  1.0000000E+00 -3.8287630E-16 -5.0757349E+00 -1.4106826E+00 -3.7720838E+00  6.4793307E+00 -1.6255986E+01  2.3504668E+04  1.2525529E+01  4.8423066E+00 -2.5294417E+00 -2.5294417E+00  1.9066517E+00 -4.2237834E-01 -5.4691396E-02  1.2741759E+01  1.9066517E+00 -4.2237834E-01 -5.4691396E-02  1.0000000E+00 -1.1102230E-16 -2.8865799E-15 -8.0532839E-01 -2.1168087E-16  4.6893416E-17
  2.6250000E+00 -6.1345923E-02  0.0000000E+00  1.6303504E+00 -2.7375490E-01  1.0323124E-02  1.6754981E+01  1.0000000E+00  1.0000000E+00 -3.8287630E-16 -1.0424798E+01 -6.2914002E-01  1.5670036E+01  1.8831417E+01  3.7036863E+01  2.8239760E+05 -3.3971116E+01 -1.1813693E+00  9.3125291E-01  9.3125291E-01  1.6303504E+00 -2.7375490E-01  1.0323124E-02  1.6754981E+01  1.6303504E+00 -2.7375490E-01  1.0323124E-02  1.0000000E+00 -1.1102230E-16 -2.8865799E-15 -4.4631641E-01 -1.8100525E-16  3.0392900E-17
  2.7187500E+00 -6.1345923E-02  0.0000000E+00  1.2519955E+00  1.3773613E-01 -3.6023331E-02  1.9232936E+01  1.0000000E+00  1.0000000E+00 -3.8287630E-16 -8.0766797E+00  3.6790320E+00  5.1439359E+00  1.0258075E+01  1.1884203E+01  1.0192685E+04 -1.2828623E+01  1.5176807E+00  7.7355556E-02  7.7355556E-02  1.2519955E+00  1.3773613E-01 -3.6023331E-02  1.9232936E+01  1.2519955E+00  1.3773613E-01 -3.6023331E-02  1.0000000E+00 -1.1102230E-16 -2.8865799E-15  1.7244502E-01 -1.3899943E-16 -1.5291782E-17
  2.8125000E+00 -6.1345923E-02  0.0000000E+00  1.3892723E+00  3.0757017E-01 -1.0644708E-01  2.2073020E+01  1.0000000E+00  1.0000000E+00 -3.8287630E-16 -2.5571177E+00 -3.5443851E+00 -6.3674663E+00  7.7230916E+00 -1.2645965E+01 -1.0980129E+04  9.0326206E+00  0.0000000E+00  0.0000000E+00  0.0000000E+00  1.3892723E+00  3.0757017E-01 -1.0644708E-01  2.2073020E+01  1.3892723E+00  3.0757017E-01 -1.0644708E-01  1.0000000E+00 -1.1102230E-16 -2.8865799E-15  4.2729871E-01 -1.5424020E-16 -3.4147149E-17
  2.9062500E+00 -6.1345923E-02  0.0000000E+00  1.5605064E+00  3.4389548E-01 -2.2534629E-01  2.6134137E+01  1.0000000E+00  1.0000000E+00 -3.8287630E-16 -5.0002991E+00  9.1482368E+00  1.1838973E+00  1.0492609E+01  2.4528001E+01  8.2184292E+04 -2.5590961E+01 -1.4348233E+00  3.0765018E-01  3.0765018E-01  1.5605064E+00  3.4389548E-01 -2.2534629E-01  2.6134137E+01  1.5605064E+00  3.4389548E-01 -2.2534629E-01  1.0000000E+00 -1.1102230E-16 -2.8865799E-15  5.3665111E-01 -1.7325102E-16 -3.8180068E-17
  3.0000000E+00 -6.1345923E-02  0.0000000E+00  1.5819184E+00  1.7392302E-01 -2.8250364E-01  2.5441186E+01  1.0000000E+00  1.0000000E+00 -3.8287630E-16 -2.1039757E-01  6.9712576E+00 -5.8872498E+00  9.1270154E+00 -1.1806918E+01  1.2371936E+04  9.0181356E+00 -4.5615597E+00  1.7944182E+00  1.7944182E+00  1.5819184E+00  1.7392302E-01 -2.8250364E-01  2.5441186E+01  1.5819184E+00  1.7392302E-01 -2.8250364E-01  1.0000000E+00 -1.1102230E-16 -2.8865799E-15  2.7513202E-01 -1.7562822E-16 -1.9309334E-17
  3.0937500E+00 -6.1345923E-02  0.0000000E+00  1.5572343E+00  1.1290750E-01 -2.0464128E-01  1.6034118E+01  1.0000000E+00  1.0000000E+00 -3.8287630E-16 -1.0500584E+01 -1.0342618E+01  5.0197347E+00  1.5570156E+01  5.4543235E+00  1.9393780E+05 -7.8560473E+00 -3.7299414E+00  2.2282775E+00  2.2282775E+00  1.5572343E+00  1.1290750E-01 -2.0464128E-01  1.6034118E+01  1.5572343E+00  1.1290750E-01 -2.0464128E-01  1.0000000E+00 -1.1102230E-16 -2.8865799E-15  1.7582343E-01 -1.7288774E-16 -1.2535250E-17
  3.1875000E+00 -6.1345923E-02  0.0000000E+00  1.5138117E+00  3.0794851E-01 -1.9912502E-01  7.1993473E+00  1.0000000E+00  1.0000000E+00 -3.8287630E-16 -4.6995486E+00 -1.6511876E+00  1.8077781E-01  4.9844617E+00 -2.6511406E+00  1.0375263E+03  2.5889437E-01 -2.4367906E+00  1.0475341E+00  1.0475341E+00  1.5138117E+00  3.0794851E-01 -1.9912502E-01  7.1993473E+00  1.5138117E+00  3.0794851E-01 -1.9912502E-01  1.0000000E+00 -1.1102230E-16 -2.8865799E-15  4.6617607E-01 -1.6806687E-16 -3.4189152E-17
  3.2812500E+00 -6.1345923E-02  0.0000000E+00  1.4666384E+00  2.5547166E-01 -1.2762031E-01  1.0155045E+01  1.0000000E+00  1.0000000E+00 -3.8287630E-16  8.0244853E+00 -5.8341791E+00 -1.2104365E-01  9.9219283E+00  1.2412944E+01  8.3601595E+04 -9.9810720E+00  2.3861951E+00 -1.6536118E+00 -1.6536118E+00  1.4666384E+00  2.5547166E-01 -1.2762031E-01  1.0155045E+01  1.4666384E+00  2.5547166E-01 -1.2762031E-01  1.0000000E+00 -1.1102230E-16 -2.8865799E-15  3.7468454E-01 -1.6282957E-16 -2.8363052E-17
  3.3750000E+00 -6.1345923E-02  0.0000000E+00  1.4928368E+00 -8.5918722E-03 -6.9330046E-02  1.2736040E+01  1.0000000E+00  1.0000000E+00 -3.8287630E-16 -1.0707863E+00  6.4224865E+00 -6.7285420E+00  9.3631294E+00  6.9005118E+00  1.9975298E+03 -7.7835058E+00 -1.2335796E+00 -1.3471752E-01 -1.3471752E-01  1.4928368E+00 -8.5918722E-03 -6.9330046E-02  1.2736040E+01  1.4928368E+00 -8.5918722E-03 -6.9330046E-02  1.0000000E+00 -1.1102230E-16 -2.8865799E-15 -1.2826263E-02 -1.6573818E-16  9.5388943E-19
  3.4687500E+00 -6.1345923E-02  0.0000000E+00  1.6664970E+00 -1.5551091E-01 -7.7207721E-02  6.4092289E+00  1.0000000E+00  1.0000000E+00 -3.8287630E-16  1.3332342E+01  9.4929707E+00 -2.4440438E+00  1.6548147E+01 -2.1818114E+00  1.2674302E+05 -7.9563390E+00 -4.2767331E+00  2.1278927E+00  2.1278927E+00  1.6664970E+00 -1.5551091E-01 -7.7207721E-02  6.4092289E+00  1.6664970E+00 -1.5551091E-01 -7.7207721E-02  1.0000000E+00 -1.1102230E-16 -2.8865799E-15 -2.5915846E-01 -1.8501834E-16  1.7265179E-17
  3.5625000E+00 -6.1345923E-02  0.0000000E+00  1.5926980E+00 -9.5108736E-02  1.0606563E-02  2.9193700E+00  1.0000000E+00  1.0000000E+00 -3.8287630E-16  1.8227213E+01  3.1104004E+00  5.8229266E+00  1.9385881E+01  1.8667353E+01  5.6729500E+05 -3.2691009E+01  4.4516472E+00 -1.5879540E+00 -1.5879540E+00  1.5926980E+00 -9.5108736E-02  1.0606563E-02  2.9193700E+00  1.5926980E+00 -9.5108736E-02  1.0606563E-02  1.0000000E+00 -1.1102230E-16 -2.8865799E-15 -1.5147949E-01 -1.7682500E-16  1.0559191E-17
  3.6562500E+00 -6.1345923E-02  0.0000000E+00  1.6053157E+00 -2.8631568E-02 -1.0279206E-02  8.4562414E+00  1.0000000E+00  1.0000000E+00 -3.8287630E-16  5.7556618E+00  9.1981193E+00 -5.1585349E+00  1.2014305E+01 -1.2509712E+00  2.9770495E+05  9.9898535E+00  4.7022386E+00 -2.5054452E+00 -2.5054452E+00  1.6053157E+00 -2.8631568E-02 -1.0279206E-02  8.4562414E+00  1.6053157E+00 -2.8631568E-02 -1.0279206E-02  1.0000000E+00 -1.1102230E-16 -2.8865799E-15 -4.5962706E-02 -1.7822584E-16  3.1787426E-18
  3.7500000E+00 -6.1345923E-02  0.0000000E+00  1.6674796E+00 -9.9482333E-02 -2.1436438E-02  1.9519665E+01  1.0000000E+00  1.0000000E+00 -3.8287630E-16  6.1188616E+00  1.9748515E+00  1.2875588E+00  6.5573099E+00 -1.0735173E+01 -4.1507427E+03  9.7352127E+00  0.0000000E+00  0.0000000E+00  0.0000000E+00  1.6674796E+00 -9.9482333E-02 -2.1436438E-02  1.9519665E+01  1.6674796E+00 -9.9482333E-02 -2.1436438E-02  1.0000000E+00 -1.1102230E-16 -2.8865799E-15 -1.6588476E-01 -1.8512742E-16  1.1044758E-17
  3.8437500E+00 -6.1345923E-02  0.0000000E+00  1.3948982E+00 -8.8501884E-02  8.8485361E-02  2.7350463E+01  1.0000000E+00  1.0000000E+00 -3.8287630E-16  8.7934351E-01  1.2106386E+00  7.5221213E+00  7.6694980E+00  2.3296599E+00  9.2852932E+01 -2.1823064E+00  4.9384717E-01 -2.3733213E-01 -2.3733213E-01  1.3948982E+00 -8.8501884E-02  8.8485361E-02  2.7350463E+01  1.3948982E+00 -8.8501884E-02  8.8485361E-02  1.0000000E+00 -1.1102230E-16 -2.8865799E-15 -1.2345112E-01 -1.5486481E-16  9.8256829E-18
  3.9375000E+00 -6.1345923E-02  0.0000000E+00  1.5308745E+00 -1.3382708E-01  1.5200352E-02  2.8544353E+01  1.0000000E+00  1.0000000E+00 -3.8287630E-16 -1.3398985E+01  3.8332492E+00 -1.3300572E+01  1.9264782E+01  5.6443537E+01  6.2074080E+06 -6.7256286E+01 -5.2999706E+00  2.6800094E+00  2.6800094E+00  1.5308745E+00 -1.3382708E-01  1.5200352E-02  2.8544353E+01  1.5308745E+00 -1.3382708E-01  1.5200352E-02  1.0000000E+00 -1.1102230E-16 -2.8865799E-15 -2.0487245E-01 -1.6996121E-16  1.4857790E-17
  4.0312500E+00 -6.1345923E-02  0.0000000E+00  1.7176227E+00 -1.5578844E-01 -9.3956267E-02  2.8786769E+01  1.0000000E+00  1.0000000E+00 -3.8287630E-16 -5.1238553E+00 -7.4548562E+00  6.3657725E+00  1.1061276E+01  8.5297918E+00  2.5235393E+04 -5.6596506E+00 -1.8145571E+00  1.4600542E+00  1.4600542E+00  1.7176227E+00 -1.5578844E-01 -9.3956267E-02  2.8786769E+01  1.7176227E+00 -1.5578844E-01 -9.3956267E-02  1.0000000E+00 -1.1102230E-16 -2.8865799E-15 -2.6758576E-01 -1.9069443E-16  1.7295991E-17
  4.1250000E+00 -6.1345923E-02  0.0000000E+00  1.7351052E+00 -3.5894572E-02 -4.5794920E-02  3.1282018E+01  1.0000000E+00  1.0000000E+00 -3.8287630E-16  1.6155172E+00 -8.0972099E+00 -4.7288330E+00  9.5150705E+00  8.3308506E+00  2.3657543E+03 -7.9216050E+00  1.3682315E-01 -1.2198346E-01 -1.2198346E-01  1.7351052E+00 -3.5894572E-02 -4.5794920E-02  3.1282018E+01  1.7351052E+00 -3.5894572E-02 -4.5794920E-02  1.0000000E+00 -1.1102230E-16 -2.8865799E-15 -6.2280857E-02 -1.9263537E-16  3.9850980E-18
  4.2187500E+00 -6.1345923E-02  0.0000000E+00  1.5906490E+00 -3.1215865E-02  4.6905031E-02  3.2980975E+01  1.0000000E+00  1.0000000E+00 -3.8287630E-16  5.9219546E+00 -6.7068122E+00  9.2045766E+00  1.2836476E+01  8.7087442E+00  2.5076149E+05 -6.1098852E+00  3.8830100E+00 -2.0369172E+00 -2.0369172E+00  1.5906490E+00 -3.1215865E-02  4.6905031E-02  3.2980975E+01  1.5906490E+00 -3.1215865E-02  4.6905031E-02  1.0000000E+00 -1.1102230E-16 -2.8865799E-15 -4.9653484E-02 -1.7659751E-16  3.4656572E-18
  4.3125000E+00 -6.1345923E-02  0.0000000E+00  1.2931497E+00  1.2114009E-01  1.2728531E-01  3.6226662E+01  1.0000000E+00  1.0000000E+00 -3.8287630E-16  3.2769784E+00 -3.6506631E+00  3.4278731E+00  5.9846673E+00  1.7053420E+00  1.5021326E+02 -1.3632511E+00 -7.1323610E-01  6.1552019E-01  6.1552019E-01  1.2931497E+00  1.2114009E-01  1.2728531E-01  3.6226662E+01  1.2931497E+00  1.2114009E-01  1.2728531E-01  1.0000000E+00 -1.1102230E-16 -2.8865799E-15  1.5665227E-01 -1.4356845E-16 -1.3449252E-17
  4.4062500E+00 -6.1345923E-02  0.0000000E+00  1.2698600E+00  1.6170773E-01  4.7981255E-02  4.0555511E+01  1.0000000E+00  1.0000000E+00 -3.8287630E-16 -1.1738153E+01  3.2150410E+00 -2.1698590E+00  1.2362403E+01  1.5252846E+01  7.5791633E+04 -1.8139939E+01  1.9125407E+00 -1.5742825E+00 -1.5742825E+00  1.2698600E+00  1.6170773E-01  4.7981255E-02  4.0555511E+01  1.2698600E+00  1.6170773E-01  4.7981255E-02  1.0000000E+00 -1.1102230E-16 -2.8865799E-15  2.0534618E-01 -1.4098278E-16 -1.7953165E-17
  4.5000000E+00 -6.1345923E-02  0.0000000E+00  1.4510401E+00 -5.2132545E-02  1.6593976E-02  3.9739031E+01  1.0000000E+00  1.0000000E+00 -3.8287630E-16 -7.7592318E+00 -1.1998352E+01 -8.7098782E+00  1.6734040E+01  1.5827165E+01  1.0476767E+06 -2.2692140E+00  4.9741566E+00 -2.3801268E+00 -2.3801268E+00  1.4510401E+00 -5.2132545E-02  1.6593976E-02  3.9739031E+01  1.4510401E+00 -5.2132545E-02  1.6593976E-02  1.0000000E+00 -1.1102230E-16 -2.8865799E-15 -7.5646413E-02 -1.6109781E-16  5.7878752E-18
  4.5937500E+00 -6.1345923E-02  0.0000000E+00  1.4932609E+00 -4.2779391E-02  8.3635503E-02  3.5495671E+01  1.0000000E+00  1.0000000E+00 -3.8287630E-16 -1.1296149E+01 -9.8498417E+00  7.1661549E+00  1.6612529E+01  9.8914926E+00  9.2476288E+03 -1.2225817E+01  1.1679089E+00 -6.8730123E-01 -6.8730123E-01  1.4932609E+00 -4.2779391E-02  8.3635503E-02  3.5495671E+01  1.4932609E+00 -4.2779391E-02  8.3635503E-02  1.0000000E+00 -1.1102230E-16 -2.8865799E-15 -6.3880792E-02 -1.6578526E-16  4.7494665E-18
  4.6875000E+00 -6.1345923E-02  0.0000000E+00  1.2845752E+00  7.3514178E-02  4.2541342E-02  2.5059463E+01  1.0000000E+00  1.0000000E+00 -3.8287630E-16 -5.2075790E+00 -2.6301868E+00  1.7664883E+00  6.0956741E+00 -4.0933376E+00  4.8081942E+02  2.9338009E+00 -2.7423930E+00  9.7765053E-01  9.7765053E-01  1.2845752E+00  7.3514178E-02  4.2541342E-02  2.5059463E+01  1.2845752E+00  7.3514178E-02  4.2541342E-02  1.0000000E+00 -1.1102230E-16 -2.8865799E-15  9.4434491E-02 -1.4261650E-16 -8.1617133E-18
  4.7812500E+00 -6.1345923E-02  0.0000000E+00  1.1330811E+00  1.2180263E-01  1.2903980E-01  1.3070853E+01  1.0000000E+00  1.0000000E+00 -3.8287630E-16  1.2157384E+01 -9.9931247E+00  3.8382647E+00  1.6198667E+01  5.6711456E+01  1.4504046E+06 -5.9612801E+01  3.0609555E+00 -8.3598657E-01 -8.3598657E-01  1.1330811E+00  1.2180263E-01  1.2903980E-01  1.3070853E+01  1.1330811E+00  1.2180263E-01  1.2903980E-01  1.0000000E+00 -1.1102230E-16 -2.8865799E-15  1.3801226E-01 -1.2579727E-16 -1.3522809E-17
  4.8750000E+00 -6.1345923E-02  0.0000000E+00  1.2483535E+00  1.2019809E-01  1.5975774E-01  8.4126904E+00  1.0000000E+00  1.0000000E+00 -3.8287630E-16  8.5372569E-01  6.1297846E+00 -7.9982697E+00  1.0113131E+01  7.4891844E-01  2.4473660E+05 -8.0749386E-02  4.3758483E+00 -2.3887752E+00 -2.3887752E+00  1.2483535E+00  1.2019809E-01  1.5975774E-01  8.4126904E+00  1.2483535E+00  1.2019809E-01  1.5975774E-01  1.0000000E+00 -1.1102230E-16 -2.8865799E-15  1.5004971E-01 -1.3859508E-16 -1.3344669E-17
  4.9687500E+00 -6.1345923E-02  0.0000000E+00  1.3581326E+00  6.2635258E-03  3.0727698E-02  5.2559578E+00  1.0000000E+00  1.0000000E+00 -3.8287630E-16 -3.4087591E-01  3.0827318E+00  1.6004736E+00  3.4901214E+00 -5.6471741E+00 -7.0893605E+02  5.6532780E+00  0.0000000E+00  0.0000000E+00  0.0000000E+00  1.3581326E+00  6.2635258E-03  3.0727698E-02  5.2559578E+00  1.3581326E+00  6.2635258E-03  3.0727698E-02  1.0000000E+00 -1.1102230E-16 -2.8865799E-15  8.5066984E-03 -1.5078301E-16 -6.9539105E-19
  5.0625000E+00 -6.1345923E-02  0.0000000E+00  1.2416694E+00  9.0947395E-02 -2.6420442E-02  2.2991759E+00  1.0000000E+00  1.0000000E+00 -3.8287630E-16 -6.8168548E+00 -8.5446967E+00  3.6478155E+00  1.1523364E+01 -7.6071456E+00  4.0437838E+03  8.3519232E+00  3.9777203E+00 -1.0944729E+00 -1.0944729E+00  1.2416694E+00  9.0947395E-02 -2.6420442E-02  2.2991759E+00  1.2416694E+00  9.0947395E-02 -2.6420442E-02  1.0000000E+00 -1.1102230E-16 -2.8865799E-15  1.1292660E-01 -1.3785300E-16 -1.0097189E-17
  5.1562500E+00 -6.1345923E-02  0.0000000E+00  1.3795885E+00  2.2723762E-01 -1.6248256E-01  3.3781209E+00  1.0000000E+00  1.0000000E+00 -3.8287630E-16 -1.4328431E+01  4.9496688E-01 -5.6499130E+00  1.5410076E+01  2.0319859E+01  2.0122869E+06 -3.1731082E+01 -5.2931343E+00  2.8539328E+00  2.8539328E+00  1.3795885E+00  2.2723762E-01 -1.6248256E-01  3.3781209E+00  1.3795885E+00  2.2723762E-01 -1.6248256E-01  1.0000000E+00 -1.1102230E-16 -2.8865799E-15  3.1349440E-01 -1.5316509E-16 -2.5228443E-17
  5.2500000E+00 -6.1345923E-02  0.0000000E+00  1.4162656E+00  2.8302828E-01 -2.1363037E-01  3.9888121E+00  1.0000000E+00  1.0000000E+00 -3.8287630E-16 -3.4434251E+00 -5.8744625E+00  5.2582656E+00  8.6032461E+00  2.7098659E+00  1.4226647E+05 -4.1836689E+00 -4.0156658E+00  1.9157333E+00  1.9157333E+00  1.4162656E+00  2.8302828E-01 -2.1363037E-01  3.9888121E+00  1.4162656E+00  2.8302828E-01 -2.1363037E-01  1.0000000E+00 -1.1102230E-16 -2.8865799E-15  4.0084322E-01 -1.5723707E-16 -3.1422452E-17
  5.3437500E+00 -6.1345923E-02  0.0000000E+00  1.4908174E+00  2.4023721E-01 -1.0393559E-01 -6.5528917E+00  1.0000000E+00  1.0000000E+00 -3.8287630E-16  4.8257902E+00 -1.0655142E+01 -9.0154484E+00  1.4768162E+01  2.7804012E+01  1.4076375E+05 -2.6999325E+01 -1.7177541E+00  5.4604517E-01  5.4604517E-01  1.4908174E+00  2.4023721E-01 -1.0393559E-01 -6.5528917E+00  1.4908174E+00  2.4023721E-01 -1.0393559E-01  1.0000000E+00 -1.1102230E-16 -2.8865799E-15  3.5814981E-01 -1.6551398E-16 -2.6671688E-17
  5.4375000E+00 -6.1345923E-02  0.0000000E+00  1.7583700E+00 -2.5510018E-02  6.9100670E-02 -2.1658728E+01  1.0000000E+00  1.0000000E+00 -3.8287630E-16  2.1246765E+01 -1.5847163E+01 -5.7805238E+00  2.7128805E+01  1.3581913E+02  1.0406643E+07 -1.4013102E+02 -8.5295156E-01  4.5883081E-01  4.5883081E-01  1.7583700E+00 -2.5510018E-02  6.9100670E-02 -2.1658728E+01  1.7583700E+00 -2.5510018E-02  6.9100670E-02  1.0000000E+00 -1.1102230E-16 -2.8865799E-15 -4.4856050E-02 -1.9521828E-16  2.8321810E-18