TITLE = "DNS FLOW Y-SLICE"
variables = "X", "Y", "Z", "U", "V", "W", "P", "T", "D", "H", "Vorx","Vory","Vorz","VorM","Qcr","Delta","Lambda2", "SWIrlStrengthR1","SWIrlStrengthR2","SWIrlStrengthI2", "Uprime","vprime","wprime","pprime","g1prime","g2prime","g3prime", "Tprime", "Dprime","Mprime","uvprime", "UDprime", "vDprime"
ZONE T = "           0  0.00000E+00 ", I =   65, J =    1, K =   65, F =POINT
  0.0000000E+00 -9.8764516E-01  0.0000000E+00  1.2024460E-01 -2.1669546E-02  2.3182136E-02  4.0123213E+00  1.0000000E+00  1.0000000E+00 -3.8287630E-16  5.9203266E-01 -7.3230437E-01 -3.7977975E+01  3.7989648E+01  2.7380860E+00  4.7657205E+04  3.4196953E+00  2.6444180E+00 -2.1453993E+00 -2.1453993E+00  1.2024460E-01 -2.1669546E-02  2.3182136E-02  4.0123213E+00  1.2024460E-01 -2.1669546E-02  2.3182136E-02  1.0000000E+00 -1.1102230E-16 -2.8865799E-15 -2.6056459E-03 -1.3349833E-17  2.4058029E-18
  9.3750000E-02 -9.8764516E-01  0.0000000E+00  2.6481501E-02 -2.0850420E-02  1.2383673E-01  1.0603630E+00  1.0000000E+00  1.0000000E+00 -3.8287630E-16  5.5590886E+00 -3.1095270E+00  5.3544696E+01  5.3922231E+01  7.5033402E+00  4.7340073E+05  7.0728117E+00 -4.5211383E+00  2.3848333E+00  2.3848333E+00  2.6481501E-02 -2.0850420E-02  1.2383673E-01  1.0603630E+00  2.6481501E-02 -2.0850420E-02  1.2383673E-01  1.0000000E+00 -1.1102230E-16 -2.8865799E-15 -5.5215043E-04 -2.9400372E-18  2.3148617E-18
  1.8750000E-01 -9.8764516E-01  0.0000000E+00  7.9775094E-03  4.1975661E-03  1.6230674E-01 -1.9938112E+00  1.0000000E+00  1.0000000E+00 -3.8287630E-16 -6.6940427E+00 -2.4514721E+00 -5.3697740E+01  5.4168877E+01 -2.2155060E+00  4.4331007E+04 -8.1620786E+00  3.6990199E+00 -1.7754189E+00 -1.7754189E+00  7.9775094E-03  4.1975661E-03  1.6230674E-01 -1.9938112E+00  7.9775094E-03  4.1975661E-03  1.6230674E-01  1.0000000E+00 -1.1102230E-16 -2.8865799E-15  3.3486123E-05 -8.8568146E-19 -4.6602345E-19
  2.8125000E-01 -9.8764516E-01  0.0000000E+00  1.9824691E-01 -7.8340432E-03  1.1854962E-01 -5.7495268E+00  1.0000000E+00  1.0000000E+00 -3.8287630E-16 -1.1581761E+01 -1.3152277E+00 -4.8423771E+00  1.2622030E+01  3.2252036E+00  2.9101604E+03 -2.7792738E+00 -1.9918246E+00  4.7064764E-01  4.7064764E-01  1.9824691E-01 -7.8340432E-03  1.1854962E-01 -5.7495268E+00  1.9824691E-01 -7.8340432E-03  1.1854962E-01  1.0000000E+00 -1.1102230E-16 -2.8865799E-15 -1.5530749E-03 -2.2009828E-17  8.6975352E-19
  3.7500000E-01 -9.8764516E-01  0.0000000E+00  1.0280279E-01 -1.1128379E-02  1.4962925E-01 -9.8706630E+00  1.0000000E+00  1.0000000E+00 -3.8287630E-16  1.6058018E+01 -7.6268441E+00  2.4993263E+01  3.0670701E+01  1.3691398E+01  8.5159887E+04 -1.0104625E+01 -2.4546213E+00  1.4222477E+00  1.4222477E+00  1.0280279E-01 -1.1128379E-02  1.4962925E-01 -9.8706630E+00  1.0280279E-01 -1.1128379E-02  1.4962925E-01  1.0000000E+00 -1.1102230E-16 -2.8865799E-15 -1.1440284E-03 -1.1413402E-17  1.2354982E-18
  4.6875000E-01 -9.8764516E-01  0.0000000E+00  1.0613070E-01  4.1970994E-04  1.7538113E-01 -1.3466906E+01  1.0000000E+00  1.0000000E+00 -3.8287630E-16 -1.2984489E+01 -3.6981797E+00 -3.3343324E+01  3.5972917E+01 -4.5040285E+00  2.1309910E+04  1.5220147E+01 -3.6864761E+00  1.6138616E+00  1.6138616E+00  1.0613070E-01  4.1970994E-04  1.7538113E-01 -1.3466906E+01  1.0613070E-01  4.1970994E-04  1.7538113E-01  1.0000000E+00 -1.1102230E-16 -2.8865799E-15  4.4544110E-05 -1.1782875E-17 -4.6597164E-20
  5.6250000E-01 -9.8764516E-01  0.0000000E+00  1.1732587E-01 -5.7927874E-03  1.4081930E-01 -1.6747538E+01  1.0000000E+00  1.0000000E+00 -3.8287630E-16  1.5415887E+00 -6.5117986E+00  2.6374636E+01  2.7210319E+01 -5.7863243E-01  1.5666096E+03  5.0713420E+00 -1.9423085E+00  1.1517314E+00  1.1517314E+00  1.1732587E-01 -5.7927874E-03  1.4081930E-01 -1.6747538E+01  1.1732587E-01 -5.7927874E-03  1.4081930E-01  1.0000000E+00 -1.1102230E-16 -2.8865799E-15 -6.7964380E-04 -1.3025788E-17  6.4312859E-19
  6.5625000E-01 -9.8764516E-01  0.0000000E+00  3.4872622E-02  2.6507032E-03  6.6283142E-02 -1.9634131E+01  1.0000000E+00  1.0000000E+00 -3.8287630E-16 -2.7467738E+01  1.2646975E+00 -1.0958340E+01  2.9600022E+01  1.6284058E+01  8.6917220E+04 -3.4154044E+00 -1.9829599E+00  1.5298898E+00  1.5298898E+00  3.4872622E-02  2.6507032E-03  6.6283142E-02 -1.9634131E+01  3.4872622E-02  2.6507032E-03  6.6283142E-02  1.0000000E+00 -1.1102230E-16 -2.8865799E-15  9.2436970E-05 -3.8716387E-18 -2.9428717E-19
  7.5000000E-01 -9.8764516E-01  0.0000000E+00  8.2808201E-02  2.6295806E-02 -1.2350487E-01 -2.2290892E+01  1.0000000E+00  1.0000000E+00 -3.8287630E-16 -3.0763417E+01  4.9497160E+00 -6.5040081E+00  3.1830640E+01  2.4155308E+01  6.8734204E+04 -2.7375384E+00 -6.2782456E-01  7.4068398E-01  7.4068398E-01  8.2808201E-02  2.6295806E-02 -1.2350487E-01 -2.2290892E+01  8.2808201E-02  2.6295806E-02 -1.2350487E-01  1.0000000E+00 -1.1102230E-16 -2.8865799E-15  2.1775084E-03 -9.1935572E-18 -2.9194209E-18
  8.4375000E-01 -9.8764516E-01  0.0000000E+00  1.2355406E-01  3.1285934E-02 -2.1566773E-01 -2.5768085E+01  1.0000000E+00  1.0000000E+00 -3.8287630E-16  2.0143907E+00  8.8242969E-01 -1.1185682E+01  1.1399821E+01  1.4653762E+00  4.2744340E+01 -2.3190018E+00 -6.9043868E-01  1.8644770E-01  1.8644770E-01  1.2355406E-01  3.1285934E-02 -2.1566773E-01 -2.5768085E+01  1.2355406E-01  3.1285934E-02 -2.1566773E-01  1.0000000E+00 -1.1102230E-16 -2.8865799E-15  3.8655041E-03 -1.3717256E-17 -3.4734364E-18
  9.3750000E-01 -9.8764516E-01  0.0000000E+00  1.7410377E-01  5.9371432E-03 -8.4509567E-02 -2.9740787E+01  1.0000000E+00  1.0000000E+00 -3.8287630E-16  4.0548788E+01 -3.4174249E+00 -8.9731706E+00  4.1670143E+01  6.9028699E+01  2.6685225E+06 -2.0454214E+01 -2.7160812E+00  1.6277678E+00  1.6277678E+00  1.7410377E-01  5.9371432E-03 -8.4509567E-02 -2.9740787E+01  1.7410377E-01  5.9371432E-03 -8.4509567E-02  1.0000000E+00 -1.1102230E-16 -2.8865799E-15  1.0336790E-03 -1.9329401E-17 -6.5915531E-19
  1.0312500E+00 -9.8764516E-01  0.0000000E+00  3.6680034E-02  3.2601658E-03  4.9151755E-03 -3.3279174E+01  1.0000000E+00  1.0000000E+00 -3.8287630E-16 -4.3457848E+00 -1.2368068E+00  4.0503859E+01  4.0755100E+01  3.9663586E+00  2.8264832E+04  1.3160606E+01 -2.5103961E+00  1.6334312E+00  1.6334312E+00  3.6680034E-02  3.2601658E-03  4.9151755E-03 -3.3279174E+01  3.6680034E-02  3.2601658E-03  4.9151755E-03  1.0000000E+00 -1.1102230E-16 -2.8865799E-15  1.1958299E-04 -4.0723019E-18 -3.6195111E-19
  1.1250000E+00 -9.8764516E-01  0.0000000E+00 -4.1222053E-02  2.5243251E-02 -1.0766620E-01 -3.6135181E+01  1.0000000E+00  1.0000000E+00 -3.8287630E-16 -1.9629156E+01  2.8593073E+00 -2.3722537E+01  3.0923101E+01 -9.1320598E+00 -2.2344080E+03  8.1836676E+00  0.0000000E+00  0.0000000E+00  0.0000000E+00 -4.1222053E-02  2.5243251E-02 -1.0766620E-01 -3.6135181E+01 -4.1222053E-02  2.5243251E-02 -1.0766620E-01  1.0000000E+00 -1.1102230E-16 -2.8865799E-15 -1.0405786E-03  4.5765672E-18 -2.8025638E-18
  1.2187500E+00 -9.8764516E-01  0.0000000E+00  3.8566770E-02  1.3872131E-02 -5.7113919E-02 -3.9146895E+01  1.0000000E+00  1.0000000E+00 -3.8287630E-16  3.7258657E+01 -8.7834987E-01 -4.3816751E+00  3.7525699E+01  5.0461626E+01  1.0306329E+06 -4.5052921E+01 -2.5293567E+00  1.1466217E+00  1.1466217E+00  3.8566770E-02  1.3872131E-02 -5.7113919E-02 -3.9146895E+01  3.8566770E-02  1.3872131E-02 -5.7113919E-02  1.0000000E+00 -1.1102230E-16 -2.8865799E-15  5.3500329E-04 -4.2817716E-18 -1.5401159E-18
  1.3125000E+00 -9.8764516E-01  0.0000000E+00  5.4801078E-03 -1.3735767E-02  1.1654502E-01 -4.1924529E+01  1.0000000E+00  1.0000000E+00 -3.8287630E-16  2.1315953E+01  1.9233513E+00  4.6432694E+00  2.1900436E+01  2.5965972E+01  1.4291788E+05 -2.7113967E+01 -1.7272239E+00  9.4777240E-01  9.4777240E-01  5.4801078E-03 -1.3735767E-02  1.1654502E-01 -4.1924529E+01  5.4801078E-03 -1.3735767E-02  1.1654502E-01  1.0000000E+00 -1.1102230E-16 -2.8865799E-15 -7.5273483E-05 -6.0841418E-19  1.5249765E-18
  1.4062500E+00 -9.8764516E-01  0.0000000E+00 -1.0156029E-01 -4.1808036E-03  7.2488034E-02 -4.3890661E+01  1.0000000E+00  1.0000000E+00 -3.8287630E-16 -2.1799060E+01  2.9244274E+00  1.8217447E+01  2.8559178E+01  1.7285960E+01  6.2683892E+04 -7.3580403E+00  2.0158407E+00 -8.2209824E-01 -8.2209824E-01 -1.0156029E-01 -4.1808036E-03  7.2488034E-02 -4.3890661E+01 -1.0156029E-01 -4.1808036E-03  7.2488034E-02  1.0000000E+00 -1.1102230E-16 -2.8865799E-15  4.2460364E-04  1.1275458E-17  4.6416244E-19
  1.5000000E+00 -9.8764516E-01  0.0000000E+00 -8.8385177E-02  1.2457198E-02 -8.0939816E-02 -4.5831801E+01  1.0000000E+00  1.0000000E+00 -3.8287630E-16 -2.0166508E+01  7.5376924E+00 -2.9612475E+01  3.6611521E+01  2.5244693E+01  1.3899169E+05 -3.0138370E+01 -1.8822525E+00  8.7384797E-01  8.7384797E-01 -8.8385177E-02  1.2457198E-02 -8.0939816E-02 -4.5831801E+01 -8.8385177E-02  1.2457198E-02 -8.0939816E-02  1.0000000E+00 -1.1102230E-16 -2.8865799E-15 -1.1010316E-03  9.8127259E-18 -1.3830268E-18
  1.5937500E+00 -9.8764516E-01  0.0000000E+00  1.3499422E-02  3.2099957E-03 -1.0146751E-01 -4.7767280E+01  1.0000000E+00  1.0000000E+00 -3.8287630E-16  1.3125186E+01  7.7019450E+00 -7.0846717E+00  1.6786394E+01 -5.4715654E+00  4.4803712E+04  7.6817819E+00 -3.8410579E+00  2.1175172E+00  2.1175172E+00  1.3499422E-02  3.2099957E-03 -1.0146751E-01 -4.7767280E+01  1.3499422E-02  3.2099957E-03 -1.0146751E-01  1.0000000E+00 -1.1102230E-16 -2.8865799E-15  4.3333085E-05 -1.4987369E-18 -3.5638111E-19
  1.6875000E+00 -9.8764516E-01  0.0000000E+00  7.0465531E-02  1.8925924E-03 -2.1433057E-02 -4.8738083E+01  1.0000000E+00  1.0000000E+00 -3.8287630E-16  1.5668421E+01  4.2853549E+00 -1.9139173E+01  2.5103219E+01  9.6723134E+00  6.9413696E+04 -8.4034982E-01 -2.6370955E+00  1.5748873E+00  1.5748873E+00  7.0465531E-02  1.8925924E-03 -2.1433057E-02 -4.8738083E+01  7.0465531E-02  1.8925924E-03 -2.1433057E-02  1.0000000E+00 -1.1102230E-16 -2.8865799E-15  1.3336253E-04 -7.8232455E-18 -2.1011996E-19
  1.7812500E+00 -9.8764516E-01  0.0000000E+00  9.7769304E-03  7.3478160E-03  3.4493885E-02 -4.8633418E+01  1.0000000E+00  1.0000000E+00 -3.8287630E-16  9.8366523E+00  1.1172882E+00  2.9365652E+01  3.0989508E+01  3.3401987E+00  8.8144172E+03 -1.0747231E+01  2.4157975E+00 -8.5939576E-01 -8.5939576E-01  9.7769304E-03  7.3478160E-03  3.4493885E-02 -4.8633418E+01  9.7769304E-03  7.3478160E-03  3.4493885E-02  1.0000000E+00 -1.1102230E-16 -2.8865799E-15  7.1839086E-05 -1.0854573E-18 -8.1577145E-19
  1.8750000E+00 -9.8764516E-01  0.0000000E+00 -5.3368243E-02  1.4709419E-02  1.1472850E-02 -4.7550923E+01  1.0000000E+00  1.0000000E+00 -3.8287630E-16 -1.1495465E+01  8.7000394E+00 -1.7342456E+01  2.2552099E+01  5.4329872E+00  5.5920155E+03 -4.0935920E+00  1.7218396E+00 -7.6179368E-01 -7.6179368E-01 -5.3368243E-02  1.4709419E-02  1.1472850E-02 -4.7550923E+01 -5.3368243E-02  1.4709419E-02  1.1472850E-02  1.0000000E+00 -1.1102230E-16 -2.8865799E-15 -7.8501584E-04  5.9250652E-18 -1.6330736E-18
  1.9687500E+00 -9.8764516E-01  0.0000000E+00 -6.1295973E-02  1.4288563E-02 -2.3027133E-02 -4.5487213E+01  1.0000000E+00  1.0000000E+00 -3.8287630E-16  2.3383436E+00  2.3989888E+00  1.3393175E+01  1.3805801E+01 -5.2955128E+00 -2.7378303E+02  1.9520203E+00  0.0000000E+00  0.0000000E+00  0.0000000E+00 -6.1295973E-02  1.4288563E-02 -2.3027133E-02 -4.5487213E+01 -6.1295973E-02  1.4288563E-02 -2.3027133E-02  1.0000000E+00 -1.1102230E-16 -2.8865799E-15 -8.7583135E-04  6.8052200E-18 -1.5863491E-18
  2.0625000E+00 -9.8764516E-01  0.0000000E+00 -1.3141439E-01 -1.1809734E-02  6.9708392E-02 -4.3091858E+01  1.0000000E+00  1.0000000E+00 -3.8287630E-16  2.4294760E+01 -5.3023652E+00  5.2288234E-01  2.4872150E+01 -9.9026951E+00 -2.8135821E+03  1.0569964E+01  0.0000000E+00  0.0000000E+00  0.0000000E+00 -1.3141439E-01 -1.1809734E-02  6.9708392E-02 -4.3091858E+01 -1.3141439E-01 -1.1809734E-02  6.9708392E-02  1.0000000E+00 -1.1102230E-16 -2.8865799E-15  1.5519690E-03  1.4589928E-17  1.3111439E-18
  2.1562500E+00 -9.8764516E-01  0.0000000E+00 -1.4307053E-01 -2.3355759E-02  5.7272808E-02 -4.0650476E+01  1.0000000E+00  1.0000000E+00 -3.8287630E-16 -2.9947475E+01  5.3711687E+00 -6.4058119E+00  3.1092364E+01  5.7863968E+01  7.8496204E+05 -5.8702547E+01 -5.1795698E-01  3.9417193E-02  3.9417193E-02 -1.4307053E-01 -2.3355759E-02  5.7272808E-02 -4.0650476E+01 -1.4307053E-01 -2.3355759E-02  5.7272808E-02  1.0000000E+00 -1.1102230E-16 -2.8865799E-15  3.3415208E-03  1.5884019E-17  2.5930102E-18
  2.2500000E+00 -9.8764516E-01  0.0000000E+00 -1.8505101E-02 -1.4995606E-02 -1.1089655E-01 -3.8289182E+01  1.0000000E+00  1.0000000E+00 -3.8287630E-16 -2.3865858E+01  3.0215041E+00 -3.8583242E+01  4.5468398E+01  3.6179329E+01  1.3356713E+06 -3.7371054E+01 -4.2186471E+00  1.7301666E+00  1.7301666E+00 -1.8505101E-02 -1.4995606E-02 -1.1089655E-01 -3.8289182E+01 -1.8505101E-02 -1.4995606E-02 -1.1089655E-01  1.0000000E+00 -1.1102230E-16 -2.8865799E-15  2.7749520E-04  2.0544789E-18  1.6648467E-18
  2.3437500E+00 -9.8764516E-01  0.0000000E+00  1.2541640E-01 -1.2689157E-02 -6.3766561E-02 -3.5586282E+01  1.0000000E+00  1.0000000E+00 -3.8287630E-16  3.0125455E+01 -4.3055889E+00 -1.0239112E+01  3.2107952E+01  9.3814182E+00  6.3438547E+04  6.9962053E+00 -2.5533003E+00  1.5954185E+00  1.5954185E+00  1.2541640E-01 -1.2689157E-02 -6.3766561E-02 -3.5586282E+01  1.2541640E-01 -1.2689157E-02 -6.3766561E-02  1.0000000E+00 -1.1102230E-16 -2.8865799E-15 -1.5914284E-03 -1.3924017E-17  1.4087794E-18
  2.4375000E+00 -9.8764516E-01  0.0000000E+00  3.5991970E-02  5.3874351E-03  8.7416155E-02 -3.1822478E+01  1.0000000E+00  1.0000000E+00 -3.8287630E-16  1.2430903E+01 -4.2369362E+00  2.7822397E+01  3.0766293E+01  2.7857262E+01  1.1508352E+05 -3.1564331E+01  1.4928310E+00 -2.4771650E-01 -2.4771650E-01  3.5991970E-02  5.3874351E-03  8.7416155E-02 -3.1822478E+01  3.5991970E-02  5.3874351E-03  8.7416155E-02  1.0000000E+00 -1.1102230E-16 -2.8865799E-15  1.9390440E-04 -3.9959114E-18 -5.9812545E-19
  2.5312500E+00 -9.8764516E-01  0.0000000E+00 -7.4913818E-03  1.5762144E-02  1.9655909E-02 -2.8099832E+01  1.0000000E+00  1.0000000E+00 -3.8287630E-16 -2.6203769E+01  3.9098580E+00 -2.0661569E+01  3.3597991E+01  1.4584491E+00  1.1167614E+01 -2.1307866E+00  8.3698249E-03 -4.3143601E-01 -4.3143601E-01 -7.4913818E-03  1.5762144E-02  1.9655909E-02 -2.8099832E+01 -7.4913818E-03  1.5762144E-02  1.9655909E-02  1.0000000E+00 -1.1102230E-16 -2.8865799E-15 -1.1808023E-04  8.3171045E-19 -1.7499495E-18
  2.6250000E+00 -9.8764516E-01  0.0000000E+00  4.2116496E-02 -3.8452014E-03 -4.7679590E-02 -2.5114545E+01  1.0000000E+00  1.0000000E+00 -3.8287630E-16  7.9936019E+00  2.4449651E+00  6.4747447E-01  8.3841964E+00 -4.1727430E+00  1.7396954E+03  4.0558294E+00 -2.6782163E+00  1.3929805E+00  1.3929805E+00  4.2116496E-02 -3.8452014E-03 -4.7679590E-02 -2.5114545E+01  4.2116496E-02 -3.8452014E-03 -4.7679590E-02  1.0000000E+00 -1.1102230E-16 -2.8865799E-15 -1.6194641E-04 -4.6758703E-18  4.2690311E-19
  2.7187500E+00 -9.8764516E-01  0.0000000E+00 -1.5986967E-02  4.4418594E-04 -8.3667023E-03 -2.1270548E+01  1.0000000E+00  1.0000000E+00 -3.8287630E-16  1.3053108E+00  1.1083941E+00  7.7260236E+00  7.9135210E+00 -2.5467676E-01  8.9952948E+01  9.0400100E-01 -1.0066486E+00  9.1555110E-01  9.1555110E-01 -1.5986967E-02  4.4418594E-04 -8.3667023E-03 -2.1270548E+01 -1.5986967E-02  4.4418594E-04 -8.3667023E-03  1.0000000E+00 -1.1102230E-16 -2.8865799E-15 -7.1011861E-06  1.7749099E-18 -4.9314545E-20
  2.8125000E+00 -9.8764516E-01  0.0000000E+00 -2.6392787E-02  1.0539694E-02 -6.0926306E-02 -1.6101792E+01  1.0000000E+00  1.0000000E+00 -3.8287630E-16 -1.5710709E+01  9.9422120E+00 -1.0429985E+01  2.1318033E+01  2.2917698E+01  4.8526017E+04 -2.3000590E+01 -6.3369118E-01 -1.0388862E-01 -1.0388862E-01 -2.6392787E-02  1.0539694E-02 -6.0926306E-02 -1.6101792E+01 -2.6392787E-02  1.0539694E-02 -6.0926306E-02  1.0000000E+00 -1.1102230E-16 -2.8865799E-15 -2.7817189E-04  2.9301879E-18 -1.1701411E-18
  2.9062500E+00 -9.8764516E-01  0.0000000E+00  1.0796499E-02 -5.4155294E-03 -3.0286355E-02 -1.0482021E+01  1.0000000E+00  1.0000000E+00 -3.8287630E-16  2.3505316E+01 -1.0908099E+00 -4.3752270E+00  2.3933916E+01 -1.3721073E+01 -3.9960374E+03  1.5412812E+01  0.0000000E+00  0.0000000E+00  0.0000000E+00  1.0796499E-02 -5.4155294E-03 -3.0286355E-02 -1.0482021E+01  1.0796499E-02 -5.4155294E-03 -3.0286355E-02  1.0000000E+00 -1.1102230E-16 -2.8865799E-15 -5.8468755E-05 -1.1986521E-18  6.0124454E-19
  3.0000000E+00 -9.8764516E-01  0.0000000E+00 -5.9183965E-03 -9.8503251E-03  2.2939160E-02 -4.4224945E+00  1.0000000E+00  1.0000000E+00 -3.8287630E-16 -1.1402606E+01  1.9798787E+00  2.4387110E+00  1.1827369E+01  1.0835866E+01  5.0211755E+03 -9.9473873E+00 -1.7200061E-01 -1.1209702E-01 -1.1209702E-01 -5.9183965E-03 -9.8503251E-03  2.2939160E-02 -4.4224945E+00 -5.9183965E-03 -9.8503251E-03  2.2939160E-02  1.0000000E+00 -1.1102230E-16 -2.8865799E-15  5.8298129E-05  6.5707400E-19  1.0936058E-18
  3.0937500E+00 -9.8764516E-01  0.0000000E+00 -5.4204742E-02 -1.2983717E-03 -5.8006203E-03  1.0875553E+00  1.0000000E+00  1.0000000E+00 -3.8287630E-16 -7.0383094E-01 -2.5220367E-01  6.9393237E+00  6.9794841E+00 -9.3098233E-01 -5.4278033E+00  5.9107733E-01  0.0000000E+00  0.0000000E+00  0.0000000E+00 -5.4204742E-02 -1.2983717E-03 -5.8006203E-03  1.0875553E+00 -5.4204742E-02 -1.2983717E-03 -5.8006203E-03  1.0000000E+00 -1.1102230E-16 -2.8865799E-15  7.0377901E-05  6.0179352E-18  1.4414821E-19
  3.1875000E+00 -9.8764516E-01  0.0000000E+00 -9.9072214E-02 -1.2317665E-03  9.3710083E-02  5.4180712E+00  1.0000000E+00  1.0000000E+00 -3.8287630E-16  2.2689553E+01 -6.6996763E+00  9.1360871E-01  2.3675645E+01  5.3252849E+00  5.1414450E+02 -6.0022805E+00  3.1320563E-01  3.0252755E-01  3.0252755E-01 -9.9072214E-02 -1.2317665E-03  9.3710083E-02  5.4180712E+00 -9.9072214E-02 -1.2317665E-03  9.3710083E-02  1.0000000E+00 -1.1102230E-16 -2.8865799E-15  1.2203383E-04  1.0999225E-17  1.3675355E-19
  3.2812500E+00 -9.8764516E-01  0.0000000E+00  6.2795319E-02 -5.2946920E-03  9.6389833E-02  9.5289832E+00  1.0000000E+00  1.0000000E+00 -3.8287630E-16 -2.5959564E+01  3.3785651E+00 -5.2001562E+01  5.8219207E+01  1.3204047E+01  2.5402275E+05  1.0472423E+01 -3.2531085E+00  2.1667685E+00  2.1667685E+00  6.2795319E-02 -5.2946920E-03  9.6389833E-02  9.5289832E+00  6.2795319E-02 -5.2946920E-03  9.6389833E-02  1.0000000E+00 -1.1102230E-16 -2.8865799E-15 -3.3248188E-04 -6.9716809E-18  5.8782890E-19
  3.3750000E+00 -9.8764516E-01  0.0000000E+00  1.5056679E-01  1.3618650E-02 -8.8767852E-02  1.3262038E+01  1.0000000E+00  1.0000000E+00 -3.8287630E-16 -3.1155513E+01  5.6104744E+00  2.1751604E+01  3.8409317E+01  3.1846504E+01  1.5068394E+05 -2.8337516E+01  9.2964701E-01 -3.7234089E-01 -3.7234089E-01  1.5056679E-01  1.3618650E-02 -8.8767852E-02  1.3262038E+01  1.5056679E-01  1.3618650E-02 -8.8767852E-02  1.0000000E+00 -1.1102230E-16 -2.8865799E-15  2.0505165E-03 -1.6716272E-17 -1.5119739E-18
  3.4687500E+00 -9.8764516E-01  0.0000000E+00  4.6497845E-02  2.4300464E-02 -1.3353798E-01  1.6303365E+01  1.0000000E+00  1.0000000E+00 -3.8287630E-16  1.0734880E+01 -4.9561346E+00  4.5400993E+00  1.2665442E+01  8.0658450E+00  3.4080781E+03 -7.9241031E+00  7.9149238E-01 -4.0832569E-01 -4.0832569E-01  4.6497845E-02  2.4300464E-02 -1.3353798E-01  1.6303365E+01  4.6497845E-02  2.4300464E-02 -1.3353798E-01  1.0000000E+00 -1.1102230E-16 -2.8865799E-15  1.1299192E-03 -5.1622978E-18 -2.6978934E-18
  3.5625000E+00 -9.8764516E-01  0.0000000E+00  1.0858231E-01 -2.3835158E-04 -7.8533130E-02  1.8284657E+01  1.0000000E+00  1.0000000E+00 -3.8287630E-16  1.6826489E+00 -3.8068176E+00 -2.5681103E+01  2.6016191E+01  9.3862039E+00  3.7029476E+03 -4.3683294E+00  3.0322965E-01 -3.2936153E-01 -3.2936153E-01  1.0858231E-01 -2.3835158E-04 -7.8533130E-02  1.8284657E+01  1.0858231E-01 -2.3835158E-04 -7.8533130E-02  1.0000000E+00 -1.1102230E-16 -2.8865799E-15 -2.5880765E-05 -1.2055058E-17  2.6462342E-20
  3.6562500E+00 -9.8764516E-01  0.0000000E+00  7.9027658E-02 -2.8967511E-03 -2.3262104E-02  1.9875051E+01  1.0000000E+00  1.0000000E+00 -3.8287630E-16  1.5453730E+01 -4.4171993E+00  2.5699328E+01  3.0311465E+01  2.0389433E+01  4.2701933E+04 -2.0579390E+01  8.0681862E-01 -4.7741370E-01 -4.7741370E-01  7.9027658E-02 -2.8967511E-03 -2.3262104E-02  1.9875051E+01  7.9027658E-02 -2.8967511E-03 -2.3262104E-02  1.0000000E+00 -1.1102230E-16 -2.8865799E-15 -2.2892346E-04 -8.7738326E-18  3.2160398E-19
  3.7500000E+00 -9.8764516E-01  0.0000000E+00  1.5650186E-02  6.7995550E-04  9.8065123E-02  2.1996601E+01  1.0000000E+00  1.0000000E+00 -3.8287630E-16  2.0494049E+01 -2.4017958E+00 -1.2698215E+01  2.4228482E+01  2.2837372E+01  1.1692355E+05 -7.2477999E+00 -2.0086960E+00  8.6076369E-01  8.6076369E-01  1.5650186E-02  6.7995550E-04  9.8065123E-02  2.1996601E+01  1.5650186E-02  6.7995550E-04  9.8065123E-02  1.0000000E+00 -1.1102230E-16 -2.8865799E-15  1.0641430E-05 -1.7375197E-18 -7.5490225E-20
  3.8437500E+00 -9.8764516E-01  0.0000000E+00  5.5229488E-02 -1.8890647E-02  1.1790241E-01  2.3782481E+01  1.0000000E+00  1.0000000E+00 -3.8287630E-16 -1.3774896E+01  2.5943673E+00 -2.4260289E+00  1.4225474E+01  6.1631800E+00  1.2003798E+03 -6.1179565E+00 -1.0554804E+00 -1.8106020E-01 -1.8106020E-01  5.5229488E-02 -1.8890647E-02  1.1790241E-01  2.3782481E+01  5.5229488E-02 -1.8890647E-02  1.1790241E-01  1.0000000E+00 -1.1102230E-16 -2.8865799E-15 -1.0433208E-03 -6.1317049E-18  2.0972832E-18
  3.9375000E+00 -9.8764516E-01  0.0000000E+00 -2.4636158E-02 -2.1143665E-02  1.0751814E-01  2.5505055E+01  1.0000000E+00  1.0000000E+00 -3.8287630E-16  8.2673202E+00 -8.3116930E+00  1.9448858E+01  2.2708829E+01 -5.4412150E+00  1.9807200E+05  1.0278452E+01 -5.1318625E+00  2.0781083E+00  2.0781083E+00 -2.4636158E-02 -2.1143665E-02  1.0751814E-01  2.5505055E+01 -2.4636158E-02 -2.1143665E-02  1.0751814E-01  1.0000000E+00 -1.1102230E-16 -2.8865799E-15  5.2089867E-04  2.7351630E-18  2.3474183E-18
  4.0312500E+00 -9.8764516E-01  0.0000000E+00 -4.7884639E-03 -2.3956732E-02  2.1202509E-01  2.7654895E+01  1.0000000E+00  1.0000000E+00 -3.8287630E-16  1.2559630E+01 -6.2805055E+00 -3.0003140E+01  3.3126688E+01  7.5587438E+00  1.4918284E+05 -4.0898075E+00  3.5088419E+00 -1.8910312E+00 -1.8910312E+00 -4.7884639E-03 -2.3956732E-02  2.1202509E-01  2.7654895E+01 -4.7884639E-03 -2.3956732E-02  2.1202509E-01  1.0000000E+00 -1.1102230E-16 -2.8865799E-15  1.1471595E-04  5.3162629E-19  2.6597315E-18
  4.1250000E+00 -9.8764516E-01  0.0000000E+00 -4.5303072E-02 -2.3604925E-02  1.8595467E-01  2.9422696E+01  1.0000000E+00  1.0000000E+00 -3.8287630E-16 -2.8227407E+01  1.9257319E+00  3.6756357E+01  4.6384531E+01  4.9182306E+01  2.5032788E+06  1.7479461E+01  3.7886136E+00 -2.4153527E+00 -2.4153527E+00 -4.5303072E-02 -2.3604925E-02  1.8595467E-01  2.9422696E+01 -4.5303072E-02 -2.3604925E-02  1.8595467E-01  1.0000000E+00 -1.1102230E-16 -2.8865799E-15  1.0693756E-03  5.0296513E-18  2.6206731E-18
  4.2187500E+00 -9.8764516E-01  0.0000000E+00 -1.1010918E-01 -6.9873116E-03  9.9886499E-02  3.0437545E+01  1.0000000E+00  1.0000000E+00 -3.8287630E-16 -3.2267926E+00 -6.3786662E-01 -2.3726912E+01  2.3953818E+01 -1.7829917E+00  2.2704472E+02  7.8973553E-01  2.0150677E+00 -7.4617215E-01 -7.4617215E-01 -1.1010918E-01 -6.9873116E-03  9.9886499E-02  3.0437545E+01 -1.1010918E-01 -6.9873116E-03  9.9886499E-02  1.0000000E+00 -1.1102230E-16 -2.8865799E-15  7.6936717E-04  1.2224575E-17  7.7574742E-19
  4.3125000E+00 -9.8764516E-01  0.0000000E+00  1.2306045E-01  4.5717581E-04  9.7704600E-02  3.0641892E+01  1.0000000E+00  1.0000000E+00 -3.8287630E-16 -6.6650901E+00 -1.2431372E+00 -4.6710411E+01  4.7199908E+01 -1.3329261E-01  5.4791131E+02 -2.6462161E+00  1.8944036E+00 -5.8536784E-01 -5.8536784E-01  1.2306045E-01  4.5717581E-04  9.7704600E-02  3.0641892E+01  1.2306045E-01  4.5717581E-04  9.7704600E-02  1.0000000E+00 -1.1102230E-16 -2.8865799E-15  5.6260263E-05 -1.3662455E-17 -5.0756711E-20
  4.4062500E+00 -9.8764516E-01  0.0000000E+00  1.6649489E-01  9.0804816E-03  1.0868628E-01  3.0525113E+01  1.0000000E+00  1.0000000E+00 -3.8287630E-16  7.7848336E+00 -2.1257522E+00  2.7476416E+01  2.8636967E+01  8.1939006E+00  2.4898911E+03 -3.0523637E+00  2.7671586E-01 -3.6102503E-01 -3.6102503E-01  1.6649489E-01  9.0804816E-03  1.0868628E-01  3.0525113E+01  1.6649489E-01  9.0804816E-03  1.0868628E-01  1.0000000E+00 -1.1102230E-16 -2.8865799E-15  1.5118538E-03 -1.8484646E-17 -1.0081360E-18
  4.5000000E+00 -9.8764516E-01  0.0000000E+00  8.6156288E-02  2.3549145E-03  2.3619574E-01  3.0236435E+01  1.0000000E+00  1.0000000E+00 -3.8287630E-16  3.0853519E+01 -8.1852359E+00 -8.5584792E+00  3.3048227E+01  4.0825330E+01  2.6734531E+05 -3.8763003E+01  4.7433953E-01  2.3889102E-01  2.3889102E-01  8.6156288E-02  2.3549145E-03  2.3619574E-01  3.0236435E+01  8.6156288E-02  2.3549145E-03  2.3619574E-01  1.0000000E+00 -1.1102230E-16 -2.8865799E-15  2.0289070E-04 -9.5652695E-18 -2.6144803E-19
  4.5937500E+00 -9.8764516E-01  0.0000000E+00  4.6052584E-02  1.0623286E-03  1.7584558E-01  2.9313358E+01  1.0000000E+00  1.0000000E+00 -3.8287630E-16 -4.6607316E+01  4.0947463E+00  1.6111024E+01  4.9483067E+01  4.6026095E+01  7.9756644E+05 -2.1611583E+01  2.4096524E+00 -1.1566697E+00 -1.1566697E+00  4.6052584E-02  1.0623286E-03  1.7584558E-01  2.9313358E+01  4.6052584E-02  1.0623286E-03  1.7584558E-01  1.0000000E+00 -1.1102230E-16 -2.8865799E-15  4.8922978E-05 -5.1128639E-18 -1.1794217E-19
  4.6875000E+00 -9.8764516E-01  0.0000000E+00 -4.9751617E-02  2.4379049E-02 -4.5438434E-02  2.7959302E+01  1.0000000E+00  1.0000000E+00 -3.8287630E-16 -1.9909532E+01  4.3734012E+00  5.8827228E+00  2.1216091E+01  2.7057488E+01  9.1002469E+04 -2.2822458E+01  7.1152697E-01 -4.2429645E-01 -4.2429645E-01 -4.9751617E-02  2.4379049E-02 -4.5438434E-02  2.7959302E+01 -4.9751617E-02  2.4379049E-02 -4.5438434E-02  1.0000000E+00 -1.1102230E-16 -2.8865799E-15 -1.2128971E-03  5.5235390E-18 -2.7066182E-18
  4.7812500E+00 -9.8764516E-01  0.0000000E+00  6.4524677E-02  1.4019429E-02 -7.9230080E-03  2.5693159E+01  1.0000000E+00  1.0000000E+00 -3.8287630E-16  2.3395858E+01  7.8173683E-01 -4.2818796E+01  4.8799862E+01  2.7121822E+01  1.3114920E+06  1.3141508E+01 -4.6807611E+00  2.0734013E+00  2.0734013E+00  6.4524677E-02  1.4019429E-02 -7.9230080E-03  2.5693159E+01  6.4524677E-02  1.4019429E-02 -7.9230080E-03  1.0000000E+00 -1.1102230E-16 -2.8865799E-15  9.0459912E-04 -7.1636782E-18 -1.5564693E-18
  4.8750000E+00 -9.8764516E-01  0.0000000E+00  1.2307984E-01 -2.3498063E-02  1.3552319E-01  2.3117005E+01  1.0000000E+00  1.0000000E+00 -3.8287630E-16  2.0940574E+01 -1.3533175E-01  1.7445387E+01  2.7255596E+01  5.0833488E+00  5.7539995E+02 -3.8605909E+00  1.2111920E-01 -6.2137047E-01 -6.2137047E-01  1.2307984E-01 -2.3498063E-02  1.3552319E-01  2.3117005E+01  1.2307984E-01 -2.3498063E-02  1.3552319E-01  1.0000000E+00 -1.1102230E-16 -2.8865799E-15 -2.8921379E-03 -1.3664607E-17  2.6088090E-18
  4.9687500E+00 -9.8764516E-01  0.0000000E+00 -3.8448809E-02 -2.6821625E-02  2.2235412E-01  2.1709351E+01  1.0000000E+00  1.0000000E+00 -3.8287630E-16  1.0509317E+01 -9.9502385E-01  2.0512097E+01  2.3069068E+01 -2.2735683E+00  1.1609217E+04 -4.8839558E+00 -2.9976418E+00  1.5381691E+00  1.5381691E+00 -3.8448809E-02 -2.6821625E-02  2.2235412E-01  2.1709351E+01 -3.8448809E-02 -2.6821625E-02  2.2235412E-01  1.0000000E+00 -1.1102230E-16 -2.8865799E-15  1.0312595E-03  4.2686753E-18  2.9777985E-18
  5.0625000E+00 -9.8764516E-01  0.0000000E+00  6.1606628E-02 -1.5562174E-02  1.7983101E-01  2.0987676E+01  1.0000000E+00  1.0000000E+00 -3.8287630E-16 -2.5084963E+01  5.5927181E+00 -5.5942074E+01  6.1563378E+01  4.0700761E+01  1.4885095E+06 -3.5671761E+01 -3.8127992E+00  1.9392623E+00  1.9392623E+00  6.1606628E-02 -1.5562174E-02  1.7983101E-01  2.0987676E+01  6.1606628E-02 -1.5562174E-02  1.7983101E-01  1.0000000E+00 -1.1102230E-16 -2.8865799E-15 -9.5873303E-04 -6.8397096E-18  1.7277483E-18
  5.1562500E+00 -9.8764516E-01  0.0000000E+00  2.4647301E-01 -1.6161322E-02  5.1351315E-02  1.9993394E+01  1.0000000E+00  1.0000000E+00 -3.8287630E-16 -1.9115581E+01  3.7236644E+00 -2.4227869E+00  1.9625009E+01  2.9000211E+01  9.8840199E+04 -2.3511428E+01  1.2216067E-01 -4.4208126E-01 -4.4208126E-01  2.4647301E-01 -1.6161322E-02  5.1351315E-02  1.9993394E+01  2.4647301E-01 -1.6161322E-02  5.1351315E-02  1.0000000E+00 -1.1102230E-16 -2.8865799E-15 -3.9833297E-03 -2.7364001E-17  1.7942672E-18
  5.2500000E+00 -9.8764516E-01  0.0000000E+00  2.7324973E-01 -2.0529103E-02  4.2863168E-02  1.8797535E+01  1.0000000E+00  1.0000000E+00 -3.8287630E-16  8.1255547E+00 -8.0863198E-01 -1.2881544E+01  1.5251646E+01 -1.0363861E+01  1.9879991E+04  3.5172353E-01  4.1312428E+00 -2.1492634E+00 -2.1492634E+00  2.7324973E-01 -2.0529103E-02  4.2863168E-02  1.8797535E+01  2.7324973E-01 -2.0529103E-02  4.2863168E-02  1.0000000E+00 -1.1102230E-16 -2.8865799E-15 -5.6095718E-03 -3.0336815E-17  2.2791882E-18
  5.3437500E+00 -9.8764516E-01  0.0000000E+00  1.2932224E-01 -1.9363983E-03  7.6355716E-02  1.7612124E+01  1.0000000E+00  1.0000000E+00 -3.8287630E-16 -5.0266234E+00 -1.3815598E-01  5.0343103E+01  5.0593617E+01  2.1986800E+01  4.6711650E+04 -9.1798407E+00 -4.0967663E-01  4.8562917E-01  4.8562917E-01  1.2932224E-01 -1.9363983E-03  7.6355716E-02  1.7612124E+01  1.2932224E-01 -1.9363983E-03  7.6355716E-02  1.0000000E+00 -1.1102230E-16 -2.8865799E-15 -2.5041938E-04 -1.4357653E-17  2.1498340E-19
  5.4375000E+00 -9.8764516E-01  0.0000000E+00 -7.6613861E-02  3.4789145E-02  4.9529032E-02  1.6781014E+01  1.0000000E+00  1.0000000E+00 -3.8287630E-16 -6.8335973E+00  1.8758014E+00  4.8876767E+00  8.6084881E+00 -6.7244805E-01  6.4135249E-01  3.5646156E-01 -6.9604989E-01  8.6730100E-01  8.6730100E-01 -7.6613861E-02  3.4789145E-02  4.9529032E-02  1.6781014E+01 -7.6613861E-02  3.4789145E-02  4.9529032E-02  1.0000000E+00 -1.1102230E-16 -2.8865799E-15 -2.6653307E-03  8.5058473E-18 -3.8623710E-18