TITLE = "DNS FLOW Z -SLICE"
variables = "X", "Y", "Z", "U", "V", "W", "P", "T", "D", "H", "Vorx","Vory","Vorz","VorM","Qcr","Delta","Lambda2", "SWIrlStrengthR1","SWIrlStrengthR2","SWIrlStrengthI2", "Uprime","vprime","wprime","pprime","g1prime","g2prime","g3prime", "Tprime", "Dprime","Mprime","uvprime", "UDprime", "vDprime"
ZONE T = "           0  0.00000E+00 ", I =   65, J =   65, K =    1, F =POINT
  0.0000000E+00 -1.0000000E+00  1.5468750E+00  0.0000000E+00  0.0000000E+00  0.0000000E+00  1.3024925E+01  0.0000000E+00  0.0000000E+00  0.0000000E+00 -9.4408150E+00 -4.0111082E+00 -1.5914175E+00  1.0380298E+01  1.0156756E+00  1.2337801E+02 -2.0268832E+00 -1.1388411E+00  3.8255329E-01  3.8255329E-01  0.0000000E+00  0.0000000E+00  0.0000000E+00  1.3024925E+01  0.0000000E+00  0.0000000E+00  0.0000000E+00  0.0000000E+00 -1.0000000E+00 -1.0000000E+00  0.0000000E+00 -0.0000000E+00 -0.0000000E+00
  9.3750000E-02 -1.0000000E+00  1.5468750E+00  0.0000000E+00  0.0000000E+00  0.0000000E+00  1.0594526E+01  0.0000000E+00  0.0000000E+00  0.0000000E+00 -1.8767541E+01  2.5284747E+00  8.8222840E+00  2.0891301E+01 -3.4887687E+00 -3.2078897E+02  2.0614881E+00  0.0000000E+00  0.0000000E+00  0.0000000E+00  0.0000000E+00  0.0000000E+00  0.0000000E+00  1.0594526E+01  0.0000000E+00  0.0000000E+00  0.0000000E+00  0.0000000E+00 -1.0000000E+00 -1.0000000E+00  0.0000000E+00 -0.0000000E+00 -0.0000000E+00
  1.8750000E-01 -1.0000000E+00  1.5468750E+00  0.0000000E+00  0.0000000E+00  0.0000000E+00  9.3686022E+00  0.0000000E+00  0.0000000E+00  0.0000000E+00  7.7501699E+01 -1.9443787E+01  6.1256754E+01  1.0068249E+02  1.3266232E+02  2.6671312E+07 -1.2854239E+02  5.0492938E+00 -2.5434584E+00 -2.5434584E+00  0.0000000E+00  0.0000000E+00  0.0000000E+00  9.3686022E+00  0.0000000E+00  0.0000000E+00  0.0000000E+00  0.0000000E+00 -1.0000000E+00 -1.0000000E+00  0.0000000E+00 -0.0000000E+00 -0.0000000E+00
  2.8125000E-01 -1.0000000E+00  1.5468750E+00  0.0000000E+00  0.0000000E+00  0.0000000E+00  1.0994730E+01  0.0000000E+00  0.0000000E+00  0.0000000E+00 -2.6432668E+01  9.2411512E+00 -5.7541797E+01  6.3993306E+01  1.3963830E+01  5.0125358E+04 -1.2107234E+01 -1.7151815E+00  1.4236364E+00  1.4236364E+00  0.0000000E+00  0.0000000E+00  0.0000000E+00  1.0994730E+01  0.0000000E+00  0.0000000E+00  0.0000000E+00  0.0000000E+00 -1.0000000E+00 -1.0000000E+00  0.0000000E+00 -0.0000000E+00 -0.0000000E+00
  3.7500000E-01 -1.0000000E+00  1.5468750E+00  0.0000000E+00  0.0000000E+00  0.0000000E+00  1.2321137E+01  0.0000000E+00  0.0000000E+00  0.0000000E+00 -6.3941331E+01  1.8271759E+01 -7.0049674E+01  9.6588342E+01  9.3110484E+01  5.2113966E+06 -9.2827339E+01 -2.5889354E+00  1.4625396E+00  1.4625396E+00  0.0000000E+00  0.0000000E+00  0.0000000E+00  1.2321137E+01  0.0000000E+00  0.0000000E+00  0.0000000E+00  0.0000000E+00 -1.0000000E+00 -1.0000000E+00  0.0000000E+00 -0.0000000E+00 -0.0000000E+00
  4.6875000E-01 -1.0000000E+00  1.5468750E+00  0.0000000E+00  0.0000000E+00  0.0000000E+00  1.3640591E+01  0.0000000E+00  0.0000000E+00  0.0000000E+00  2.7140983E+01 -1.3630198E+01  7.2631149E+01  7.8725466E+01  3.4416599E+01  2.8219789E+05 -3.9379497E+01  2.0817186E+00 -5.9520096E-01 -5.9520096E-01  0.0000000E+00  0.0000000E+00  0.0000000E+00  1.3640591E+01  0.0000000E+00  0.0000000E+00  0.0000000E+00  0.0000000E+00 -1.0000000E+00 -1.0000000E+00  0.0000000E+00 -0.0000000E+00 -0.0000000E+00
  5.6250000E-01 -1.0000000E+00  1.5468750E+00  0.0000000E+00  0.0000000E+00  0.0000000E+00  1.3975742E+01  0.0000000E+00  0.0000000E+00  0.0000000E+00 -1.0131969E+01  2.4651405E+00 -2.3665632E+01  2.5861088E+01  3.9418799E-01  3.1217061E+01 -1.8961323E-01  7.3888012E-01 -5.9722623E-01 -5.9722623E-01  0.0000000E+00  0.0000000E+00  0.0000000E+00  1.3975742E+01  0.0000000E+00  0.0000000E+00  0.0000000E+00  0.0000000E+00 -1.0000000E+00 -1.0000000E+00  0.0000000E+00 -0.0000000E+00 -0.0000000E+00
  6.5625000E-01 -1.0000000E+00  1.5468750E+00  0.0000000E+00  0.0000000E+00  0.0000000E+00  1.3533637E+01  0.0000000E+00  0.0000000E+00  0.0000000E+00  5.6046371E+00  8.3079002E-01  3.2447126E+00  6.5291905E+00 -8.1971544E+00 -1.3842020E+03  1.9225344E+00  0.0000000E+00  0.0000000E+00  0.0000000E+00  0.0000000E+00  0.0000000E+00  0.0000000E+00  1.3533637E+01  0.0000000E+00  0.0000000E+00  0.0000000E+00  0.0000000E+00 -1.0000000E+00 -1.0000000E+00  0.0000000E+00 -0.0000000E+00 -0.0000000E+00
  7.5000000E-01 -1.0000000E+00  1.5468750E+00  0.0000000E+00  0.0000000E+00  0.0000000E+00  1.5104432E+01  0.0000000E+00  0.0000000E+00  0.0000000E+00  5.3306128E+01 -7.7739987E+00 -1.1280251E+01  5.5038372E+01  4.9139962E+01  4.7489105E+05 -4.3181183E+01 -3.1881303E-02  1.2087544E-01  1.2087544E-01  0.0000000E+00  0.0000000E+00  0.0000000E+00  1.5104432E+01  0.0000000E+00  0.0000000E+00  0.0000000E+00  0.0000000E+00 -1.0000000E+00 -1.0000000E+00  0.0000000E+00 -0.0000000E+00 -0.0000000E+00
  8.4375000E-01 -1.0000000E+00  1.5468750E+00  0.0000000E+00  0.0000000E+00  0.0000000E+00  1.6976883E+01  0.0000000E+00  0.0000000E+00  0.0000000E+00 -3.1593684E+01  1.0704434E+01 -3.9658472E+01  5.1822198E+01  3.0287641E+01  9.5114387E+05 -3.6475690E+01 -4.1247320E+00  1.7003388E+00  1.7003388E+00  0.0000000E+00  0.0000000E+00  0.0000000E+00  1.6976883E+01  0.0000000E+00  0.0000000E+00  0.0000000E+00  0.0000000E+00 -1.0000000E+00 -1.0000000E+00  0.0000000E+00 -0.0000000E+00 -0.0000000E+00
  9.3750000E-01 -1.0000000E+00  1.5468750E+00  0.0000000E+00  0.0000000E+00  0.0000000E+00  1.6879106E+01  0.0000000E+00  0.0000000E+00  0.0000000E+00  8.2078805E+00 -1.3203182E+01  8.8126384E+01  8.9487166E+01  2.3722497E+01  1.7418887E+05 -4.0166157E+01 -2.8156577E+00  6.3626904E-01  6.3626904E-01  0.0000000E+00  0.0000000E+00  0.0000000E+00  1.6879106E+01  0.0000000E+00  0.0000000E+00  0.0000000E+00  0.0000000E+00 -1.0000000E+00 -1.0000000E+00  0.0000000E+00 -0.0000000E+00 -0.0000000E+00
  1.0312500E+00 -1.0000000E+00  1.5468750E+00  0.0000000E+00  0.0000000E+00  0.0000000E+00  1.9425299E+01  0.0000000E+00  0.0000000E+00  0.0000000E+00  5.7159050E+01 -3.9243154E+00 -3.0629256E+01  6.4966981E+01  7.2551915E+01  1.1565038E+07  3.0150568E+01 -5.4328397E+00  3.2120469E+00  3.2120469E+00  0.0000000E+00  0.0000000E+00  0.0000000E+00  1.9425299E+01  0.0000000E+00  0.0000000E+00  0.0000000E+00  0.0000000E+00 -1.0000000E+00 -1.0000000E+00  0.0000000E+00 -0.0000000E+00 -0.0000000E+00
  1.1250000E+00 -1.0000000E+00  1.5468750E+00  0.0000000E+00  0.0000000E+00  0.0000000E+00  1.9897353E+01  0.0000000E+00  0.0000000E+00  0.0000000E+00 -5.9071793E+01  8.8187390E+00 -7.4825198E+00  6.0193314E+01  8.1377681E+01  3.2478155E+06 -4.6988715E+01 -2.3804201E+00  1.0981866E+00  1.0981866E+00  0.0000000E+00  0.0000000E+00  0.0000000E+00  1.9897353E+01  0.0000000E+00  0.0000000E+00  0.0000000E+00  0.0000000E+00 -1.0000000E+00 -1.0000000E+00  0.0000000E+00 -0.0000000E+00 -0.0000000E+00
  1.2187500E+00 -1.0000000E+00  1.5468750E+00  0.0000000E+00  0.0000000E+00  0.0000000E+00  1.9393251E+01  0.0000000E+00  0.0000000E+00  0.0000000E+00  3.2393301E+00 -6.4149445E+00  4.4196124E+01  4.4776580E+01 -5.8142048E+00 -9.7273715E+02  2.9031494E+00  0.0000000E+00  0.0000000E+00  0.0000000E+00  0.0000000E+00  0.0000000E+00  0.0000000E+00  1.9393251E+01  0.0000000E+00  0.0000000E+00  0.0000000E+00  0.0000000E+00 -1.0000000E+00 -1.0000000E+00  0.0000000E+00 -0.0000000E+00 -0.0000000E+00
  1.3125000E+00 -1.0000000E+00  1.5468750E+00  0.0000000E+00  0.0000000E+00  0.0000000E+00  2.1190529E+01  0.0000000E+00  0.0000000E+00  0.0000000E+00 -1.4460049E+01  9.0816534E+00 -6.4172022E+01  6.6404954E+01  1.7956967E+01  6.6219425E+04 -2.0555173E+01  2.1177043E+00 -6.8214117E-01 -6.8214117E-01  0.0000000E+00  0.0000000E+00  0.0000000E+00  2.1190529E+01  0.0000000E+00  0.0000000E+00  0.0000000E+00  0.0000000E+00 -1.0000000E+00 -1.0000000E+00  0.0000000E+00 -0.0000000E+00 -0.0000000E+00
  1.4062500E+00 -1.0000000E+00  1.5468750E+00  0.0000000E+00  0.0000000E+00  0.0000000E+00  2.2123739E+01  0.0000000E+00  0.0000000E+00  0.0000000E+00 -1.0302416E+01  7.7968264E+00 -3.4640481E+01  3.6971519E+01 -1.8574649E+01  6.1240713E+05 -6.6047655E+00 -7.4595241E+00  2.0648400E+00  2.0648400E+00  0.0000000E+00  0.0000000E+00  0.0000000E+00  2.2123739E+01  0.0000000E+00  0.0000000E+00  0.0000000E+00  0.0000000E+00 -1.0000000E+00 -1.0000000E+00  0.0000000E+00 -0.0000000E+00 -0.0000000E+00
  1.5000000E+00 -1.0000000E+00  1.5468750E+00  0.0000000E+00  0.0000000E+00  0.0000000E+00  2.2608405E+01  0.0000000E+00  0.0000000E+00  0.0000000E+00  1.1381756E+02 -2.0541922E+01  3.3229004E+01  1.2033526E+02  2.2431070E+02  9.2686365E+07 -1.8507639E+02  5.5739245E+00 -2.3307949E+00 -2.3307949E+00  0.0000000E+00  0.0000000E+00  0.0000000E+00  2.2608405E+01  0.0000000E+00  0.0000000E+00  0.0000000E+00  0.0000000E+00 -1.0000000E+00 -1.0000000E+00  0.0000000E+00 -0.0000000E+00 -0.0000000E+00
  1.5937500E+00 -1.0000000E+00  1.5468750E+00  0.0000000E+00  0.0000000E+00  0.0000000E+00  2.3014571E+01  0.0000000E+00  0.0000000E+00  0.0000000E+00 -7.8959401E+01  7.9766731E+00  4.5055843E+00  7.9489085E+01  1.2586046E+02  8.9910889E+06 -4.5909974E+01 -1.1999085E+00  1.1507639E+00  1.1507639E+00  0.0000000E+00  0.0000000E+00  0.0000000E+00  2.3014571E+01  0.0000000E+00  0.0000000E+00  0.0000000E+00  0.0000000E+00 -1.0000000E+00 -1.0000000E+00  0.0000000E+00 -0.0000000E+00 -0.0000000E+00
  1.6875000E+00 -1.0000000E+00  1.5468750E+00  0.0000000E+00  0.0000000E+00  0.0000000E+00  2.1369849E+01  0.0000000E+00  0.0000000E+00  0.0000000E+00 -6.2072114E+01  5.2262924E+00  2.6089688E+01  6.7534682E+01  1.3762102E+01  1.5290298E+06  3.4370800E+01  5.7535553E+00 -2.4128775E+00 -2.4128775E+00  0.0000000E+00  0.0000000E+00  0.0000000E+00  2.1369849E+01  0.0000000E+00  0.0000000E+00  0.0000000E+00  0.0000000E+00 -1.0000000E+00 -1.0000000E+00  0.0000000E+00 -0.0000000E+00 -0.0000000E+00
  1.7812500E+00 -1.0000000E+00  1.5468750E+00  0.0000000E+00  0.0000000E+00  0.0000000E+00  2.1323236E+01  0.0000000E+00  0.0000000E+00  0.0000000E+00  4.0607430E+01  1.8981873E+00 -6.0435933E+01  7.2835901E+01  6.7508894E+01  5.2343928E+06  2.5244269E+01 -4.5563851E+00  2.0777814E+00  2.0777814E+00  0.0000000E+00  0.0000000E+00  0.0000000E+00  2.1323236E+01  0.0000000E+00  0.0000000E+00  0.0000000E+00  0.0000000E+00 -1.0000000E+00 -1.0000000E+00  0.0000000E+00 -0.0000000E+00 -0.0000000E+00
  1.8750000E+00 -1.0000000E+00  1.5468750E+00  0.0000000E+00  0.0000000E+00  0.0000000E+00  1.9946030E+01  0.0000000E+00  0.0000000E+00  0.0000000E+00  3.3671385E+01  1.1790333E+00 -3.1486831E+01  4.6114778E+01 -2.4245878E+01 -3.5065769E+04  1.8147089E+01  0.0000000E+00  0.0000000E+00  0.0000000E+00  0.0000000E+00  0.0000000E+00  0.0000000E+00  1.9946030E+01  0.0000000E+00  0.0000000E+00  0.0000000E+00  0.0000000E+00 -1.0000000E+00 -1.0000000E+00  0.0000000E+00 -0.0000000E+00 -0.0000000E+00
  1.9687500E+00 -1.0000000E+00  1.5468750E+00  0.0000000E+00  0.0000000E+00  0.0000000E+00  1.8784915E+01  0.0000000E+00  0.0000000E+00  0.0000000E+00  3.9753942E+01 -1.6785388E+01  7.4107071E+01  8.5755368E+01  6.5662218E+01  2.3082739E+06 -6.1514069E+01 -2.9304352E+00  1.3193054E+00  1.3193054E+00  0.0000000E+00  0.0000000E+00  0.0000000E+00  1.8784915E+01  0.0000000E+00  0.0000000E+00  0.0000000E+00  0.0000000E+00 -1.0000000E+00 -1.0000000E+00  0.0000000E+00 -0.0000000E+00 -0.0000000E+00
  2.0625000E+00 -1.0000000E+00  1.5468750E+00  0.0000000E+00  0.0000000E+00  0.0000000E+00  1.6686870E+01  0.0000000E+00  0.0000000E+00  0.0000000E+00 -3.6348095E+01  5.6804023E+00 -2.1313556E+01  4.2517275E+01  1.2476461E+01  1.7215164E+04 -3.4545447E+00 -9.2967077E-01  1.1282785E+00  1.1282785E+00  0.0000000E+00  0.0000000E+00  0.0000000E+00  1.6686870E+01  0.0000000E+00  0.0000000E+00  0.0000000E+00  0.0000000E+00 -1.0000000E+00 -1.0000000E+00  0.0000000E+00 -0.0000000E+00 -0.0000000E+00
  2.1562500E+00 -1.0000000E+00  1.5468750E+00  0.0000000E+00  0.0000000E+00  0.0000000E+00  1.4553063E+01  0.0000000E+00  0.0000000E+00  0.0000000E+00 -5.0918327E+01  1.3627311E+01 -5.1908428E+01  7.3978811E+01  4.8649464E+01  1.1701616E+06 -5.0623898E+01 -2.7250007E+00  1.5585737E+00  1.5585737E+00  0.0000000E+00  0.0000000E+00  0.0000000E+00  1.4553063E+01  0.0000000E+00  0.0000000E+00  0.0000000E+00  0.0000000E+00 -1.0000000E+00 -1.0000000E+00  0.0000000E+00 -0.0000000E+00 -0.0000000E+00
  2.2500000E+00 -1.0000000E+00  1.5468750E+00  0.0000000E+00  0.0000000E+00  0.0000000E+00  1.2635151E+01  0.0000000E+00  0.0000000E+00  0.0000000E+00  2.9389238E+01  9.0712679E-01 -3.4188927E+01  4.5093601E+01  2.7108982E+01  7.2088322E+05  1.1251979E+01 -3.6208760E+00  1.9972211E+00  1.9972211E+00  0.0000000E+00  0.0000000E+00  0.0000000E+00  1.2635151E+01  0.0000000E+00  0.0000000E+00  0.0000000E+00  0.0000000E+00 -1.0000000E+00 -1.0000000E+00  0.0000000E+00 -0.0000000E+00 -0.0000000E+00
  2.3437500E+00 -1.0000000E+00  1.5468750E+00  0.0000000E+00  0.0000000E+00  0.0000000E+00  1.0845939E+01  0.0000000E+00  0.0000000E+00  0.0000000E+00  2.2522133E+00 -3.9019660E+00  2.6172314E+01  2.6557256E+01  4.5068592E+00  8.8831984E+02 -6.4528805E+00 -9.3976880E-01  3.2732663E-01  3.2732663E-01  0.0000000E+00  0.0000000E+00  0.0000000E+00  1.0845939E+01  0.0000000E+00  0.0000000E+00  0.0000000E+00  0.0000000E+00 -1.0000000E+00 -1.0000000E+00  0.0000000E+00 -0.0000000E+00 -0.0000000E+00
  2.4375000E+00 -1.0000000E+00  1.5468750E+00  0.0000000E+00  0.0000000E+00  0.0000000E+00  8.7246005E+00  0.0000000E+00  0.0000000E+00  0.0000000E+00 -1.0086185E+01 -6.6526194E+00  5.5267320E+01  5.6572653E+01  4.0634138E+00  1.8174657E+04  6.8413262E+00  2.3302475E+00 -1.4130716E+00 -1.4130716E+00  0.0000000E+00  0.0000000E+00  0.0000000E+00  8.7246005E+00  0.0000000E+00  0.0000000E+00  0.0000000E+00  0.0000000E+00 -1.0000000E+00 -1.0000000E+00  0.0000000E+00 -0.0000000E+00 -0.0000000E+00
  2.5312500E+00 -1.0000000E+00  1.5468750E+00  0.0000000E+00  0.0000000E+00  0.0000000E+00  8.0186897E+00  0.0000000E+00  0.0000000E+00  0.0000000E+00  1.2767669E+01 -5.2069766E+00  2.0283242E+01  2.4526229E+01  4.5400818E+00  3.7687686E+04 -1.0756266E+01  3.2372006E+00 -1.0523397E+00 -1.0523397E+00  0.0000000E+00  0.0000000E+00  0.0000000E+00  8.0186897E+00  0.0000000E+00  0.0000000E+00  0.0000000E+00  0.0000000E+00 -1.0000000E+00 -1.0000000E+00  0.0000000E+00 -0.0000000E+00 -0.0000000E+00
  2.6250000E+00 -1.0000000E+00  1.5468750E+00  0.0000000E+00  0.0000000E+00  0.0000000E+00  6.9614942E+00  0.0000000E+00  0.0000000E+00  0.0000000E+00 -3.7553583E+01  1.1299541E+01 -5.7338521E+01  6.9466951E+01  2.9557124E+01  1.3872076E+05 -3.0600168E+01 -9.4007236E-01  8.6284228E-01  8.6284228E-01  0.0000000E+00  0.0000000E+00  0.0000000E+00  6.9614942E+00  0.0000000E+00  0.0000000E+00  0.0000000E+00  0.0000000E+00 -1.0000000E+00 -1.0000000E+00  0.0000000E+00 -0.0000000E+00 -0.0000000E+00
  2.7187500E+00 -1.0000000E+00  1.5468750E+00  0.0000000E+00  0.0000000E+00  0.0000000E+00  5.9463821E+00  0.0000000E+00  0.0000000E+00  0.0000000E+00 -1.5815657E+01  7.6348234E+00 -3.7976664E+01  4.1840800E+01 -6.2008978E+00  3.2142836E+05 -1.7456918E+01  5.7736402E+00 -1.9671142E+00 -1.9671142E+00  0.0000000E+00  0.0000000E+00  0.0000000E+00  5.9463821E+00  0.0000000E+00  0.0000000E+00  0.0000000E+00  0.0000000E+00 -1.0000000E+00 -1.0000000E+00  0.0000000E+00 -0.0000000E+00 -0.0000000E+00
  2.8125000E+00 -1.0000000E+00  1.5468750E+00  0.0000000E+00  0.0000000E+00  0.0000000E+00  2.8556513E+00  0.0000000E+00  0.0000000E+00  0.0000000E+00 -3.1100682E+01 -9.1614163E+00  9.4583254E+01  9.9985879E+01  5.1040623E+01  2.2451926E+07  8.3057450E+01  7.7584118E+00 -4.1200611E+00 -4.1200611E+00  0.0000000E+00  0.0000000E+00  0.0000000E+00  2.8556513E+00  0.0000000E+00  0.0000000E+00  0.0000000E+00  0.0000000E+00 -1.0000000E+00 -1.0000000E+00  0.0000000E+00 -0.0000000E+00 -0.0000000E+00
  2.9062500E+00 -1.0000000E+00  1.5468750E+00  0.0000000E+00  0.0000000E+00  0.0000000E+00  2.6757290E+00  0.0000000E+00  0.0000000E+00  0.0000000E+00  4.0187918E+01  1.4561415E+00 -5.3605453E+01  6.7012937E+01  5.6540715E+01  2.3554797E+06 -4.5304181E+01 -4.3570497E+00  9.6780331E-01  9.6780331E-01  0.0000000E+00  0.0000000E+00  0.0000000E+00  2.6757290E+00  0.0000000E+00  0.0000000E+00  0.0000000E+00  0.0000000E+00 -1.0000000E+00 -1.0000000E+00  0.0000000E+00 -0.0000000E+00 -0.0000000E+00
  3.0000000E+00 -1.0000000E+00  1.5468750E+00  0.0000000E+00  0.0000000E+00  0.0000000E+00  4.4939880E+00  0.0000000E+00  0.0000000E+00  0.0000000E+00  7.4208600E+01 -8.2533429E+00 -6.0956722E+00  7.4914559E+01  3.5176740E+01  5.4291558E+05  4.1758705E+00 -2.5783081E+00  1.5320635E+00  1.5320635E+00  0.0000000E+00  0.0000000E+00  0.0000000E+00  4.4939880E+00  0.0000000E+00  0.0000000E+00  0.0000000E+00  0.0000000E+00 -1.0000000E+00 -1.0000000E+00  0.0000000E+00 -0.0000000E+00 -0.0000000E+00
  3.0937500E+00 -1.0000000E+00  1.5468750E+00  0.0000000E+00  0.0000000E+00  0.0000000E+00  2.0596257E+00  0.0000000E+00  0.0000000E+00  0.0000000E+00 -6.8128097E+01  1.7050842E+00  3.2100249E+01  7.5331075E+01  1.0602095E+02  5.1478338E+07  4.0640230E+01  7.4682571E+00 -4.2999756E+00 -4.2999756E+00  0.0000000E+00  0.0000000E+00  0.0000000E+00  2.0596257E+00  0.0000000E+00  0.0000000E+00  0.0000000E+00  0.0000000E+00 -1.0000000E+00 -1.0000000E+00  0.0000000E+00 -0.0000000E+00 -0.0000000E+00
  3.1875000E+00 -1.0000000E+00  1.5468750E+00  0.0000000E+00  0.0000000E+00  0.0000000E+00 -1.6960680E+00  0.0000000E+00  0.0000000E+00  0.0000000E+00  2.4767613E+01  9.0644336E+00 -7.9785993E+01  8.4032156E+01  7.9572623E+01  4.7152207E+06 -1.8838626E+00 -3.5873677E+00  1.5975181E+00  1.5975181E+00  0.0000000E+00  0.0000000E+00  0.0000000E+00 -1.6960680E+00  0.0000000E+00  0.0000000E+00  0.0000000E+00  0.0000000E+00 -1.0000000E+00 -1.0000000E+00  0.0000000E+00 -0.0000000E+00 -0.0000000E+00
  3.2812500E+00 -1.0000000E+00  1.5468750E+00  0.0000000E+00  0.0000000E+00  0.0000000E+00 -3.8415495E+00  0.0000000E+00  0.0000000E+00  0.0000000E+00  3.5974454E+01 -9.0212825E+00  2.4350030E+01  4.4367430E+01  1.6215669E+01  4.7719060E+04 -1.8223399E+01 -1.6300307E+00  9.9544057E-01  9.9544057E-01  0.0000000E+00  0.0000000E+00  0.0000000E+00 -3.8415495E+00  0.0000000E+00  0.0000000E+00  0.0000000E+00  0.0000000E+00 -1.0000000E+00 -1.0000000E+00  0.0000000E+00 -0.0000000E+00 -0.0000000E+00
  3.3750000E+00 -1.0000000E+00  1.5468750E+00  0.0000000E+00  0.0000000E+00  0.0000000E+00 -7.7508612E+00  0.0000000E+00  0.0000000E+00  0.0000000E+00 -3.9077331E+01  5.8909969E+00 -1.2111467E+01  4.1333150E+01  2.5806694E+01  1.0023862E+05 -1.1809701E+01 -1.0977210E+00  7.8913343E-01  7.8913343E-01  0.0000000E+00  0.0000000E+00  0.0000000E+00 -7.7508612E+00  0.0000000E+00  0.0000000E+00  0.0000000E+00  0.0000000E+00 -1.0000000E+00 -1.0000000E+00  0.0000000E+00 -0.0000000E+00 -0.0000000E+00
  3.4687500E+00 -1.0000000E+00  1.5468750E+00  0.0000000E+00  0.0000000E+00  0.0000000E+00 -8.5924317E+00  0.0000000E+00  0.0000000E+00  0.0000000E+00 -1.7886324E+01  6.7358312E+00 -3.0967914E+01  3.6390984E+01  9.5664448E+00  2.9676215E+04 -6.8567556E+00  2.0141714E+00 -1.2498294E+00 -1.2498294E+00  0.0000000E+00  0.0000000E+00  0.0000000E+00 -8.5924317E+00  0.0000000E+00  0.0000000E+00  0.0000000E+00  0.0000000E+00 -1.0000000E+00 -1.0000000E+00  0.0000000E+00 -0.0000000E+00 -0.0000000E+00
  3.5625000E+00 -1.0000000E+00  1.5468750E+00  0.0000000E+00  0.0000000E+00  0.0000000E+00 -1.1811869E+01  0.0000000E+00  0.0000000E+00  0.0000000E+00  4.2313008E+01 -1.1569305E+01  4.7755395E+01  6.4844562E+01  3.8441142E+01  7.7640649E+05 -4.3596599E+01  3.0416060E+00 -1.4652362E+00 -1.4652362E+00  0.0000000E+00  0.0000000E+00  0.0000000E+00 -1.1811869E+01  0.0000000E+00  0.0000000E+00  0.0000000E+00  0.0000000E+00 -1.0000000E+00 -1.0000000E+00  0.0000000E+00 -0.0000000E+00 -0.0000000E+00
  3.6562500E+00 -1.0000000E+00  1.5468750E+00  0.0000000E+00  0.0000000E+00  0.0000000E+00 -1.1951008E+01  0.0000000E+00  0.0000000E+00  0.0000000E+00 -1.3168362E+01 -7.9261623E-01  3.3564591E+00  1.3612487E+01  1.6865994E+00  1.1853542E+02 -1.2472947E+00 -7.6175176E-01  4.6167179E-01  4.6167179E-01  0.0000000E+00  0.0000000E+00  0.0000000E+00 -1.1951008E+01  0.0000000E+00  0.0000000E+00  0.0000000E+00  0.0000000E+00 -1.0000000E+00 -1.0000000E+00  0.0000000E+00 -0.0000000E+00 -0.0000000E+00
  3.7500000E+00 -1.0000000E+00  1.5468750E+00  0.0000000E+00  0.0000000E+00  0.0000000E+00 -1.5258540E+01  0.0000000E+00  0.0000000E+00  0.0000000E+00 -2.2177983E+01  3.9116155E+00 -1.1849817E+00  2.2551449E+01  4.2469252E+00  2.5691856E+02 -1.4989049E+00  4.2971169E-01  2.6007506E-01  2.6007506E-01  0.0000000E+00  0.0000000E+00  0.0000000E+00 -1.5258540E+01  0.0000000E+00  0.0000000E+00  0.0000000E+00  0.0000000E+00 -1.0000000E+00 -1.0000000E+00  0.0000000E+00 -0.0000000E+00 -0.0000000E+00
  3.8437500E+00 -1.0000000E+00  1.5468750E+00  0.0000000E+00  0.0000000E+00  0.0000000E+00 -1.6158073E+01  0.0000000E+00  0.0000000E+00  0.0000000E+00 -1.0608732E+01  3.0106808E+00 -2.3144597E+01  2.5637507E+01  2.2162201E+00  4.2121349E+02 -1.5533924E+00  1.0900213E+00 -5.5256228E-01 -5.5256228E-01  0.0000000E+00  0.0000000E+00  0.0000000E+00 -1.6158073E+01  0.0000000E+00  0.0000000E+00  0.0000000E+00  0.0000000E+00 -1.0000000E+00 -1.0000000E+00  0.0000000E+00 -0.0000000E+00 -0.0000000E+00
  3.9375000E+00 -1.0000000E+00  1.5468750E+00  0.0000000E+00  0.0000000E+00  0.0000000E+00 -1.8109684E+01  0.0000000E+00  0.0000000E+00  0.0000000E+00  2.0851874E+01 -7.5532105E-01 -2.0696159E+00  2.0967939E+01  4.3917550E-01  7.0784679E+00 -3.7948746E-01 -5.1309998E-01 -4.5728489E-01 -4.5728489E-01  0.0000000E+00  0.0000000E+00  0.0000000E+00 -1.8109684E+01  0.0000000E+00  0.0000000E+00  0.0000000E+00  0.0000000E+00 -1.0000000E+00 -1.0000000E+00  0.0000000E+00 -0.0000000E+00 -0.0000000E+00
  4.0312500E+00 -1.0000000E+00  1.5468750E+00  0.0000000E+00  0.0000000E+00  0.0000000E+00 -1.8851872E+01  0.0000000E+00  0.0000000E+00  0.0000000E+00  4.0550791E+01 -1.0074617E+01  2.1000910E+01  4.6764332E+01  2.9039276E+01  7.4316729E+05 -3.7826244E+01  4.0750108E+00 -1.3832335E+00 -1.3832335E+00  0.0000000E+00  0.0000000E+00  0.0000000E+00 -1.8851872E+01  0.0000000E+00  0.0000000E+00  0.0000000E+00  0.0000000E+00 -1.0000000E+00 -1.0000000E+00  0.0000000E+00 -0.0000000E+00 -0.0000000E+00
  4.1250000E+00 -1.0000000E+00  1.5468750E+00  0.0000000E+00  0.0000000E+00  0.0000000E+00 -1.9081710E+01  0.0000000E+00  0.0000000E+00  0.0000000E+00 -6.8599804E+01  7.5786418E+00  1.4868779E+01  7.0600634E+01  8.7480574E+01  3.4315015E+06 -3.6116077E+01  1.7087481E+00 -1.0572438E+00 -1.0572438E+00  0.0000000E+00  0.0000000E+00  0.0000000E+00 -1.9081710E+01  0.0000000E+00  0.0000000E+00  0.0000000E+00  0.0000000E+00 -1.0000000E+00 -1.0000000E+00  0.0000000E+00 -0.0000000E+00 -0.0000000E+00
  4.2187500E+00 -1.0000000E+00  1.5468750E+00  0.0000000E+00  0.0000000E+00  0.0000000E+00 -1.9692936E+01  0.0000000E+00  0.0000000E+00  0.0000000E+00  2.2067587E+01 -3.4493054E+00  9.9778198E-01  2.2357810E+01  1.9748592E+01  3.7430638E+04 -2.1725889E+01  1.0190896E+00 -1.8186149E-01 -1.8186149E-01  0.0000000E+00  0.0000000E+00  0.0000000E+00 -1.9692936E+01  0.0000000E+00  0.0000000E+00  0.0000000E+00  0.0000000E+00 -1.0000000E+00 -1.0000000E+00  0.0000000E+00 -0.0000000E+00 -0.0000000E+00
  4.3125000E+00 -1.0000000E+00  1.5468750E+00  0.0000000E+00  0.0000000E+00  0.0000000E+00 -1.8804774E+01  0.0000000E+00  0.0000000E+00  0.0000000E+00  7.8820034E+00  1.5177351E+00 -1.6438506E+01  1.8293550E+01 -3.6359265E+00  1.0241757E+03  5.0487135E+00 -2.2321570E+00  1.5268862E+00  1.5268862E+00  0.0000000E+00  0.0000000E+00  0.0000000E+00 -1.8804774E+01  0.0000000E+00  0.0000000E+00  0.0000000E+00  0.0000000E+00 -1.0000000E+00 -1.0000000E+00  0.0000000E+00 -0.0000000E+00 -0.0000000E+00
  4.4062500E+00 -1.0000000E+00  1.5468750E+00  0.0000000E+00  0.0000000E+00  0.0000000E+00 -1.8443991E+01  0.0000000E+00  0.0000000E+00  0.0000000E+00 -3.3956995E+01  6.1704141E-01  2.7122337E+01  4.3463541E+01  2.2029431E+01  1.0907237E+06  1.1790341E+01  4.0193671E+00 -2.8363656E+00 -2.8363656E+00  0.0000000E+00  0.0000000E+00  0.0000000E+00 -1.8443991E+01  0.0000000E+00  0.0000000E+00  0.0000000E+00  0.0000000E+00 -1.0000000E+00 -1.0000000E+00  0.0000000E+00 -0.0000000E+00 -0.0000000E+00
  4.5000000E+00 -1.0000000E+00  1.5468750E+00  0.0000000E+00  0.0000000E+00  0.0000000E+00 -1.8655525E+01  0.0000000E+00  0.0000000E+00  0.0000000E+00  6.3756327E+01 -1.1386805E+01  2.4986226E+01  6.9417866E+01  8.2092972E+01  6.0270562E+06 -7.1061571E+01  4.0653350E+00 -1.7441792E+00 -1.7441792E+00  0.0000000E+00  0.0000000E+00  0.0000000E+00 -1.8655525E+01  0.0000000E+00  0.0000000E+00  0.0000000E+00  0.0000000E+00 -1.0000000E+00 -1.0000000E+00  0.0000000E+00 -0.0000000E+00 -0.0000000E+00
  4.5937500E+00 -1.0000000E+00  1.5468750E+00  0.0000000E+00  0.0000000E+00  0.0000000E+00 -1.6473407E+01  0.0000000E+00  0.0000000E+00  0.0000000E+00 -2.5136239E+01  7.7123312E+00 -5.0328610E+01  5.6782740E+01  7.8741003E+00  2.7861805E+05 -2.6469425E+01 -4.3070740E+00  1.8357532E+00  1.8357532E+00  0.0000000E+00  0.0000000E+00  0.0000000E+00 -1.6473407E+01  0.0000000E+00  0.0000000E+00  0.0000000E+00  0.0000000E+00 -1.0000000E+00 -1.0000000E+00  0.0000000E+00 -0.0000000E+00 -0.0000000E+00
  4.6875000E+00 -1.0000000E+00  1.5468750E+00  0.0000000E+00  0.0000000E+00  0.0000000E+00 -1.5929408E+01  0.0000000E+00  0.0000000E+00  0.0000000E+00  1.8008394E-02  6.6773109E+00 -3.5725155E+01  3.6343824E+01  1.0123452E+01  1.0347006E+04  1.8723696E-01  1.1468615E+00 -7.8909989E-01 -7.8909989E-01  0.0000000E+00  0.0000000E+00  0.0000000E+00 -1.5929408E+01  0.0000000E+00  0.0000000E+00  0.0000000E+00  0.0000000E+00 -1.0000000E+00 -1.0000000E+00  0.0000000E+00 -0.0000000E+00 -0.0000000E+00
  4.7812500E+00 -1.0000000E+00  1.5468750E+00  0.0000000E+00  0.0000000E+00  0.0000000E+00 -1.4285863E+01  0.0000000E+00  0.0000000E+00  0.0000000E+00  2.1787330E+01 -1.4046008E+01  6.8981825E+01  7.3691724E+01  3.4242972E+01  1.7990070E+05 -3.5012423E+01  1.6567516E+00  1.6312732E-01  1.6312732E-01  0.0000000E+00  0.0000000E+00  0.0000000E+00 -1.4285863E+01  0.0000000E+00  0.0000000E+00  0.0000000E+00  0.0000000E+00 -1.0000000E+00 -1.0000000E+00  0.0000000E+00 -0.0000000E+00 -0.0000000E+00
  4.8750000E+00 -1.0000000E+00  1.5468750E+00  0.0000000E+00  0.0000000E+00  0.0000000E+00 -1.2391125E+01  0.0000000E+00  0.0000000E+00  0.0000000E+00 -7.3100257E+01  1.3668790E+01 -3.5014349E+01  8.2197859E+01  7.0766720E+01  2.6977929E+06 -4.4281726E+01 -2.3695539E+00  1.8310452E+00  1.8310452E+00  0.0000000E+00  0.0000000E+00  0.0000000E+00 -1.2391125E+01  0.0000000E+00  0.0000000E+00  0.0000000E+00  0.0000000E+00 -1.0000000E+00 -1.0000000E+00  0.0000000E+00 -0.0000000E+00 -0.0000000E+00
  4.9687500E+00 -1.0000000E+00  1.5468750E+00  0.0000000E+00  0.0000000E+00  0.0000000E+00 -9.0846356E+00  0.0000000E+00  0.0000000E+00  0.0000000E+00 -1.8489608E+01  5.2735469E+00 -1.5315051E+01  2.4581023E+01 -4.6335682E+00  7.0173990E+04 -7.7814338E+00  4.5713051E+00 -1.5560354E+00 -1.5560354E+00  0.0000000E+00  0.0000000E+00  0.0000000E+00 -9.0846356E+00  0.0000000E+00  0.0000000E+00  0.0000000E+00  0.0000000E+00 -1.0000000E+00 -1.0000000E+00  0.0000000E+00 -0.0000000E+00 -0.0000000E+00
  5.0625000E+00 -1.0000000E+00  1.5468750E+00  0.0000000E+00  0.0000000E+00  0.0000000E+00 -5.8542756E+00  0.0000000E+00  0.0000000E+00  0.0000000E+00  4.7825964E+00 -7.5421427E+00  4.8040581E+01  4.8863632E+01  5.0272835E+00  4.5474080E+03 -8.8327112E+00 -1.9885611E+00  3.5678598E-01  3.5678598E-01  0.0000000E+00  0.0000000E+00  0.0000000E+00 -5.8542756E+00  0.0000000E+00  0.0000000E+00  0.0000000E+00  0.0000000E+00 -1.0000000E+00 -1.0000000E+00  0.0000000E+00 -0.0000000E+00 -0.0000000E+00
  5.1562500E+00 -1.0000000E+00  1.5468750E+00  0.0000000E+00  0.0000000E+00  0.0000000E+00 -3.3532569E+00  0.0000000E+00  0.0000000E+00  0.0000000E+00  5.2908574E+01 -1.2949145E+00 -4.4949798E+01  6.9436866E+01  1.4697492E+01  1.3549468E+05 -2.0327039E+01 -3.7650642E+00  2.7781116E-01  2.7781116E-01  0.0000000E+00  0.0000000E+00  0.0000000E+00 -3.3532569E+00  0.0000000E+00  0.0000000E+00  0.0000000E+00  0.0000000E+00 -1.0000000E+00 -1.0000000E+00  0.0000000E+00 -0.0000000E+00 -0.0000000E+00
  5.2500000E+00 -1.0000000E+00  1.5468750E+00  0.0000000E+00  0.0000000E+00  0.0000000E+00 -4.0173769E-01  0.0000000E+00  0.0000000E+00  0.0000000E+00  7.5108681E+01 -4.7802361E+00 -4.1268440E+01  8.5832679E+01  3.0482744E+01  2.8504950E+06  1.9656068E+01 -5.3703049E+00  2.6827984E+00  2.6827984E+00  0.0000000E+00  0.0000000E+00  0.0000000E+00 -4.0173769E-01  0.0000000E+00  0.0000000E+00  0.0000000E+00  0.0000000E+00 -1.0000000E+00 -1.0000000E+00  0.0000000E+00 -0.0000000E+00 -0.0000000E+00
  5.3437500E+00 -1.0000000E+00  1.5468750E+00  0.0000000E+00  0.0000000E+00  0.0000000E+00  2.6598417E+00  0.0000000E+00  0.0000000E+00  0.0000000E+00 -6.3965369E+01  9.0299199E+00 -2.0515173E+01  6.7778907E+01  8.0791676E+01  4.0136160E+06 -2.4068952E+01 -2.5216094E+00  1.9680130E+00  1.9680130E+00  0.0000000E+00  0.0000000E+00  0.0000000E+00  2.6598417E+00  0.0000000E+00  0.0000000E+00  0.0000000E+00  0.0000000E+00 -1.0000000E+00 -1.0000000E+00  0.0000000E+00 -0.0000000E+00 -0.0000000E+00
  5.4375000E+00 -1.0000000E+00  1.5468750E+00  0.0000000E+00  0.0000000E+00  0.0000000E+00  5.0338800E+00  0.0000000E+00  0.0000000E+00  0.0000000E+00 -6.0871147E+01  4.4979478E+00  3.5275606E+01  7.0497492E+01  2.7544147E+01  4.2602705E+06  3.4739491E+01  5.8292991E+00 -3.2977151E+00 -3.2977151E+00  0.0000000E+00  0.0000000E+00  0.0000000E+00  5.0338800E+00  0.0000000E+00  0.0000000E+00  0.0000000E+00  0.0000000E+00 -1.0000000E+00 -1.0000000E+00  0.0000000E+00 -0.0000000E+00 -0.0000000E+00