TITLE = "DNS FLOW X -SLICE"
variables = "X", "Y", "Z", "U", "V", "W", "P", "T", "D", "H", "Vorx","Vory","Vorz","VorM","Qcr","Delta","Lambda2", "SWIrlStrengthR1","SWIrlStrengthR2","SWIrlStrengthI2", "Uprime","vprime","wprime","pprime","g1prime","g2prime","g3prime", "Tprime", "Dprime","Mprime","uvprime", "UDprime", "vDprime"
ZONE T = "           0  0.00000E+00 ", I =    1, J =   65, K =   65, F =POINT
  3.0937500E+00 -1.0000000E+00  0.0000000E+00  0.0000000E+00  0.0000000E+00  0.0000000E+00  2.3283986E+00  0.0000000E+00  0.0000000E+00  0.0000000E+00 -2.4626757E+01  3.7417927E+00 -1.5861046E+00  2.4959846E+01  1.5542253E+01  1.5658233E+04 -1.5484707E+01 -3.8710553E-01  9.3464834E-02  9.3464834E-02  0.0000000E+00  0.0000000E+00  0.0000000E+00  2.3283986E+00  0.0000000E+00  0.0000000E+00  0.0000000E+00  0.0000000E+00 -1.0000000E+00 -1.0000000E+00  0.0000000E+00 -0.0000000E+00 -0.0000000E+00
  3.0937500E+00 -9.9416550E-01  0.0000000E+00 -2.2402771E-02 -2.6301041E-03  2.8941982E-02  1.9454145E-01  1.0000000E+00  1.0000000E+00 -3.8287630E-16 -1.2665294E+01  1.7447945E+00  2.6766095E+00  1.3062091E+01  1.0639809E+01  4.7329392E+03 -9.8571463E+00 -2.2322802E-01 -1.2337130E-01 -1.2337130E-01 -2.2402771E-02 -2.6301041E-03  2.8941982E-02  1.9454145E-01 -2.2402771E-02 -2.6301041E-03  2.8941982E-02  1.0000000E+00 -1.1102230E-16 -2.8865799E-15  5.8921619E-05  2.4872072E-18  2.9200021E-19
  3.0937500E+00 -9.8764516E-01  0.0000000E+00 -5.4204742E-02 -1.2983717E-03 -5.8006203E-03  1.0875553E+00  1.0000000E+00  1.0000000E+00 -3.8287630E-16 -7.0383094E-01 -2.5220367E-01  6.9393237E+00  6.9794841E+00 -9.3098233E-01 -5.4278033E+00  5.9107733E-01  0.0000000E+00  0.0000000E+00  0.0000000E+00 -5.4204742E-02 -1.2983717E-03 -5.8006203E-03  1.0875553E+00 -5.4204742E-02 -1.2983717E-03 -5.8006203E-03  1.0000000E+00 -1.1102230E-16 -2.8865799E-15  7.0377901E-05  6.0179352E-18  1.4414821E-19
  3.0937500E+00 -9.8036369E-01  0.0000000E+00 -8.1610204E-02 -4.1292521E-03  7.6374489E-02  1.2884628E+00  1.0000000E+00  1.0000000E+00 -3.8287630E-16  2.0107534E+01 -6.6304855E+00  9.2301206E-01  2.1192645E+01 -7.1497070E+00  6.5036426E+03  5.8927361E+00 -3.1526032E+00  2.0539339E+00  2.0539339E+00 -8.1610204E-02 -4.1292521E-03  7.6374489E-02  1.2884628E+00 -8.1610204E-02 -4.1292521E-03  7.6374489E-02  1.0000000E+00 -1.1102230E-16 -2.8865799E-15  3.3698911E-04  9.0605527E-18  4.5843907E-19
  3.0937500E+00 -9.7223887E-01  0.0000000E+00  9.9019068E-02 -8.7932881E-03  6.7968183E-02  1.7740424E+00  1.0000000E+00  1.0000000E+00 -3.8287630E-16 -2.2268008E+01  3.3141918E+00 -4.2889298E+01  4.8439033E+01  2.9979297E+01  1.1748334E+06  2.2986031E+01 -3.8210076E+00  2.4531903E+00  2.4531903E+00  9.9019068E-02 -8.7932881E-03  6.7968183E-02  1.7740424E+00  9.9019068E-02 -8.7932881E-03  6.7968183E-02  1.0000000E+00 -1.1102230E-16 -2.8865799E-15 -8.7070320E-04 -1.0993325E-17  9.7625109E-19
  3.0937500E+00 -9.6318127E-01  0.0000000E+00  2.1299272E-01  1.4725311E-02 -1.3159007E-01  2.3396542E+00  1.0000000E+00  1.0000000E+00 -3.8287630E-16 -2.4682594E+01  5.7788392E+00  1.5252547E+01  2.9584888E+01  4.7917578E+01  5.3847801E+05 -4.0303345E+01  1.2720507E+00 -5.6212438E-01 -5.6212438E-01  2.1299272E-01  1.4725311E-02 -1.3159007E-01  2.3396542E+00  2.1299272E-01  1.4725311E-02 -1.3159007E-01  1.0000000E+00 -1.1102230E-16 -2.8865799E-15  3.1363841E-03 -2.3646942E-17 -1.6348380E-18
  3.0937500E+00 -9.5309403E-01  0.0000000E+00  1.3024816E-01  3.1361315E-02 -2.0161969E-01  2.5894149E+00  1.0000000E+00  1.0000000E+00 -3.8287630E-16  7.1615286E+00 -4.8993951E+00  2.0635718E+00  8.9190746E+00  1.2730735E+00  6.6125068E+01 -1.3091398E+00 -8.0031338E-01  3.6786599E-01  3.6786599E-01  1.3024816E-01  3.1361315E-02 -2.0161969E-01  2.5894149E+00  1.3024816E-01  3.1361315E-02 -2.0161969E-01  1.0000000E+00 -1.1102230E-16 -2.8865799E-15  4.0847535E-03 -1.4460451E-17 -3.4818054E-18
  3.0937500E+00 -9.4187279E-01  0.0000000E+00  2.1874391E-01  7.1380324E-03 -1.4080343E-01  2.4211435E+00  1.0000000E+00  1.0000000E+00 -3.8287630E-16  3.0828815E+00 -4.2525016E+00 -1.7324858E+01  1.8103553E+01  7.0860293E+00  3.8822927E+03 -3.0502215E+00  9.9178356E-01 -7.2364019E-01 -7.2364019E-01  2.1874391E-01  7.1380324E-03 -1.4080343E-01  2.4211435E+00  2.1874391E-01  7.1380324E-03 -1.4080343E-01  1.0000000E+00 -1.1102230E-16 -2.8865799E-15  1.5614011E-03 -2.4285452E-17 -7.9248079E-19
  3.0937500E+00 -9.2940575E-01  0.0000000E+00  2.3154567E-01  1.0787963E-02 -6.2923435E-02  1.7711243E+00  1.0000000E+00  1.0000000E+00 -3.8287630E-16  9.7443225E+00 -4.6042008E+00  1.3817670E+01  1.7523655E+01  1.9332883E+01  3.8912217E+04 -1.8815081E+01  9.0289418E-01 -5.2611007E-01 -5.2611007E-01  2.3154567E-01  1.0787963E-02 -6.2923435E-02  1.7711243E+00  2.3154567E-01  1.0787963E-02 -6.2923435E-02  1.0000000E+00 -1.1102230E-16 -2.8865799E-15  2.4979061E-03 -2.5706733E-17 -1.1977045E-18
  3.0937500E+00 -9.1557392E-01  0.0000000E+00  2.0046999E-01  8.2367840E-03  4.5104483E-02  1.4743425E+00  1.0000000E+00  1.0000000E+00 -3.8287630E-16  8.9760037E+00 -2.0795246E+00 -8.3592614E+00  1.2440672E+01  1.7495804E+01  7.0267716E+04 -1.3789095E+01 -2.0572804E+00  9.1974945E-01  9.1974945E-01  2.0046999E-01  8.2367840E-03  4.5104483E-02  1.4743425E+00  2.0046999E-01  8.2367840E-03  4.5104483E-02  1.0000000E+00 -1.1102230E-16 -2.8865799E-15  1.6512280E-03 -2.2256640E-17 -9.1446673E-19
  3.0937500E+00 -9.0025164E-01  0.0000000E+00  2.7060075E-01 -2.6465008E-02  3.6524856E-02  1.6571245E+00  1.0000000E+00  1.0000000E+00 -3.8287630E-16 -7.7357021E+00  2.7288961E+00 -1.8199584E+00  8.4023931E+00  2.3410620E+00  2.2802070E+02 -3.1010602E+00 -1.1752137E+00 -2.6572498E-02 -2.6572498E-02  2.7060075E-01 -2.6465008E-02  3.6524856E-02  1.6571245E+00  2.7060075E-01 -2.6465008E-02  3.6524856E-02  1.0000000E+00 -1.1102230E-16 -2.8865799E-15 -7.1614509E-03 -3.0042718E-17  2.9382061E-18
  3.0937500E+00 -8.8330740E-01  0.0000000E+00  2.2425638E-01 -2.8807268E-02  3.4127642E-03  2.8918227E+00  1.0000000E+00  1.0000000E+00 -3.8287630E-16  1.7498363E+00 -8.2530314E+00  6.7994292E+00  1.0835437E+01  3.4634884E+00  2.2190609E+04  3.7931139E-01 -2.9090901E+00  1.0961714E+00  1.0961714E+00  2.2425638E-01 -2.8807268E-02  3.4127642E-03  2.8918227E+00  2.2425638E-01 -2.8807268E-02  3.4127642E-03  1.0000000E+00 -1.1102230E-16 -2.8865799E-15 -6.4602135E-03 -2.4897459E-17  3.1982492E-18
  3.0937500E+00 -8.6460502E-01  0.0000000E+00  2.7850840E-01 -6.1031041E-02  7.2825590E-02  6.0686186E+00  1.0000000E+00  1.0000000E+00 -3.8287630E-16  4.5075829E+00 -5.8561872E+00 -1.2482246E+01  1.4505850E+01  1.8976576E+01  3.2925865E+04 -1.7458874E+01  6.6587096E-01 -4.4655404E-01 -4.4655404E-01  2.7850840E-01 -6.1031041E-02  7.2825590E-02  6.0686186E+00  2.7850840E-01 -6.1031041E-02  7.2825590E-02  1.0000000E+00 -1.1102230E-16 -2.8865799E-15 -1.6997657E-02 -3.0920643E-17  6.7758067E-18
  3.0937500E+00 -8.4400524E-01  0.0000000E+00  2.9271683E-01 -9.2241819E-02  6.4221963E-02  1.0080706E+01  1.0000000E+00  1.0000000E+00 -3.8287630E-16 -8.1172453E+00  9.8816430E-01  9.4500882E+00  1.2496812E+01  1.5136869E+01  8.9752471E+04 -8.4820407E+00  2.1537601E+00 -1.5789736E+00 -1.5789736E+00  2.9271683E-01 -9.2241819E-02  6.4221963E-02  1.0080706E+01  2.9271683E-01 -9.2241819E-02  6.4221963E-02  1.0000000E+00 -1.1102230E-16 -2.8865799E-15 -2.7000733E-02 -3.2498097E-17  1.0240899E-17
  3.0937500E+00 -8.2136784E-01  0.0000000E+00  2.9424782E-01 -1.0010185E-01  2.4085126E-02  1.3115397E+01  1.0000000E+00  1.0000000E+00 -3.8287630E-16 -3.2889767E+00 -1.0270065E+00 -8.9277306E+00  9.5695602E+00 -2.3519985E+00  2.7570975E+03  1.9888000E+00  2.6796334E+00 -1.1022284E+00 -1.1022284E+00  2.9424782E-01 -1.0010185E-01  2.4085126E-02  1.3115397E+01  2.9424782E-01 -1.0010185E-01  2.4085126E-02  1.0000000E+00 -1.1102230E-16 -2.8865799E-15 -2.9454752E-02 -3.2668071E-17  1.1113538E-17
  3.0937500E+00 -7.9655418E-01  0.0000000E+00  5.7838305E-01 -1.0642837E-01  1.2496618E-02  1.5530295E+01  1.0000000E+00  1.0000000E+00 -3.8287630E-16 -5.6200665E+00 -1.1417120E+00 -1.3765843E+01  1.4912649E+01  1.2645742E+00  8.5953694E+02 -1.7059307E+00  1.7097624E+00 -5.8620614E-01 -5.8620614E-01  5.7838305E-01 -1.0642837E-01  1.2496618E-02  1.5530295E+01  5.7838305E-01 -1.0642837E-01  1.2496618E-02  1.0000000E+00 -1.1102230E-16 -2.8865799E-15 -6.1556364E-02 -6.4213418E-17  1.1815923E-17
  3.0937500E+00 -7.6943050E-01  0.0000000E+00  6.8877922E-01 -8.4559968E-02  2.6157387E-02  1.8323000E+01  1.0000000E+00  1.0000000E+00 -3.8287630E-16  2.1677950E+00 -3.3225466E+00  5.1813077E+00  6.5256878E+00  4.4984877E-01  1.0314836E+03 -2.3508429E+00 -1.9215860E+00  6.9144228E-01  6.9144228E-01  6.8877922E-01 -8.4559968E-02  2.6157387E-02  1.8323000E+01  6.8877922E-01 -8.4559968E-02  2.6157387E-02  1.0000000E+00 -1.1102230E-16 -2.8865799E-15 -5.8243148E-02 -7.6469855E-17  9.3880423E-18
  3.0937500E+00 -7.3987156E-01  0.0000000E+00  6.9198184E-01 -1.2656539E-01  2.8329762E-01  2.1621903E+01  1.0000000E+00  1.0000000E+00 -3.8287630E-16  1.5675636E+01 -9.9635405E+00 -6.3370001E+00  1.9625373E+01  4.5184401E+01  7.6533548E+05 -5.0668129E+01  2.8860165E+00 -7.1643122E-01 -7.1643122E-01  6.9198184E-01 -1.2656539E-01  2.8329762E-01  2.1621903E+01  6.9198184E-01 -1.2656539E-01  2.8329762E-01  1.0000000E+00 -1.1102230E-16 -2.8865799E-15 -8.7580951E-02 -7.6825417E-17  1.4051581E-17
  3.0937500E+00 -7.0776509E-01  0.0000000E+00  7.0857348E-01 -9.7147255E-02  2.3627198E-01  2.4963944E+01  1.0000000E+00  1.0000000E+00 -3.8287630E-16 -2.8173123E+01  6.7400272E+00  6.1359658E+00  2.9610858E+01  1.6566348E+02  2.3265460E+07 -1.6368428E+02  2.4144401E+00 -1.3714259E+00 -1.3714259E+00  7.0857348E-01 -9.7147255E-02  2.3627198E-01  2.4963944E+01  7.0857348E-01 -9.7147255E-02  2.3627198E-01  1.0000000E+00 -1.1102230E-16 -2.8865799E-15 -6.8835968E-02 -7.8667459E-17  1.0785512E-17
  3.0937500E+00 -6.7301652E-01  0.0000000E+00  6.5594151E-01  5.9098721E-02 -8.9713016E-02  2.4527262E+01  1.0000000E+00  1.0000000E+00 -3.8287630E-16 -1.1361866E+01  7.4542764E+00  3.8043079E-01  1.3594225E+01  3.7053639E+01  2.0417230E+05 -3.7089561E+01 -2.4355309E-01  1.7526152E-03  1.7526152E-03  6.5594151E-01  5.9098721E-02 -8.9713016E-02  2.4527262E+01  6.5594151E-01  5.9098721E-02 -8.9713016E-02  1.0000000E+00 -1.1102230E-16 -2.8865799E-15  3.8765305E-02 -7.2824137E-17 -6.5612761E-18
  3.0937500E+00 -6.3555433E-01  0.0000000E+00  9.8831488E-01 -3.1845631E-02 -5.4208125E-02  1.6985531E+01  1.0000000E+00  1.0000000E+00 -3.8287630E-16  9.1059089E+00  3.5878942E+00 -1.9435497E+01  2.1760724E+01  3.0841293E+01  2.5704523E+06 -2.9345402E+01 -5.3745669E+00  2.4287528E+00  2.4287528E+00  9.8831488E-01 -3.1845631E-02 -5.4208125E-02  1.6985531E+01  9.8831488E-01 -3.1845631E-02 -5.4208125E-02  1.0000000E+00 -1.1102230E-16 -2.8865799E-15 -3.1473511E-02 -1.0972499E-16  3.5355752E-18
  3.0937500E+00 -5.9533541E-01  0.0000000E+00  1.1191613E+00 -1.7964426E-01  1.4058720E-01  9.6051284E+00  1.0000000E+00  1.0000000E+00 -3.8287630E-16  1.1324334E+01 -2.3448874E-01  9.2031491E+00  1.4594296E+01  9.7020136E+00  8.3306331E+05 -5.8168989E+00  4.5834643E+00 -2.9307433E+00 -2.9307433E+00  1.1191613E+00 -1.7964426E-01  1.4058720E-01  9.6051284E+00  1.1191613E+00 -1.7964426E-01  1.4058720E-01  1.0000000E+00 -1.1102230E-16 -2.8865799E-15 -2.0105089E-01 -1.2425186E-16  1.9944519E-17
  3.0937500E+00 -5.5235066E-01  0.0000000E+00  8.4366065E-01 -1.7523110E-01  2.9423178E-01  8.8277730E+00  1.0000000E+00  1.0000000E+00 -3.8287630E-16  5.7000663E+00 -1.4633820E+00  3.9382582E+00  7.0811101E+00  4.4959399E+00  5.2035555E+04 -7.8879407E+00  3.2213304E+00 -1.4261602E+00 -1.4261602E+00  8.4366065E-01 -1.7523110E-01  2.9423178E-01  8.8277730E+00  8.4366065E-01 -1.7523110E-01  2.9423178E-01  1.0000000E+00 -1.1102230E-16 -2.8865799E-15 -1.4783559E-01 -9.3665148E-17  1.9454560E-17
  3.0937500E+00 -5.0663008E-01  0.0000000E+00  1.1233011E+00 -2.1818032E-01  2.0656227E-01  1.0310876E+01  1.0000000E+00  1.0000000E+00 -3.8287630E-16 -8.6252517E+00  1.0959811E+01 -1.6422024E+01  2.1545192E+01  5.6440480E+01  2.0187309E+06 -4.5958347E+01 -3.0175656E+00  1.8916025E+00  1.8916025E+00  1.1233011E+00 -2.1818032E-01  2.0656227E-01  1.0310876E+01  1.1233011E+00 -2.1818032E-01  2.0656227E-01  1.0000000E+00 -1.1102230E-16 -2.8865799E-15 -2.4508219E-01 -1.2471148E-16  2.4222881E-17
  3.0937500E+00 -4.5824743E-01  0.0000000E+00  1.5455880E+00 -2.7929867E-01 -8.9283267E-03  1.1894172E+01  1.0000000E+00  1.0000000E+00 -3.8287630E-16 -8.9640394E+00  6.8723268E+00 -2.6109055E+00  1.1593089E+01  2.5669101E+01  1.1872906E+05 -2.6975934E+01 -1.7129632E+00  6.1921796E-01  6.1921796E-01  1.5455880E+00 -2.7929867E-01 -8.9283267E-03  1.1894172E+01  1.5455880E+00 -2.7929867E-01 -8.9283267E-03  1.0000000E+00 -1.1102230E-16 -2.8865799E-15 -4.3168068E-01 -1.7159474E-16  3.1008382E-17
  3.0937500E+00 -4.0732380E-01  0.0000000E+00  1.6810009E+00 -4.0232207E-01 -2.3224724E-02  1.4180279E+01  1.0000000E+00  1.0000000E+00 -3.8287630E-16 -4.6121500E+00 -1.3544755E+00 -5.1968956E+00  7.0791422E+00 -1.5679197E+01  1.1581646E+05  8.0424009E+00  5.2909677E+00 -2.7435896E+00 -2.7435896E+00  1.6810009E+00 -4.0232207E-01 -2.3224724E-02  1.4180279E+01  1.6810009E+00 -4.0232207E-01 -2.3224724E-02  1.0000000E+00 -1.1102230E-16 -2.8865799E-15 -6.7630378E-01 -1.8662859E-16  4.4666723E-17
  3.0937500E+00 -3.5402987E-01  0.0000000E+00  1.4606318E+00 -2.6520122E-01  3.2434539E-02  1.6822779E+01  1.0000000E+00  1.0000000E+00 -3.8287630E-16 -1.0427428E+01 -6.5873431E-01  1.6275443E+01  1.9340507E+01  4.0554307E+01  3.7368736E+05 -3.7046877E+01 -1.2332997E+00  1.0113312E+00  1.0113312E+00  1.4606318E+00 -2.6520122E-01  3.2434539E-02  1.6822779E+01  1.4606318E+00 -2.6520122E-01  3.2434539E-02  1.0000000E+00 -1.1102230E-16 -2.8865799E-15 -3.8736134E-01 -1.6216271E-16  2.9443250E-17
  3.0937500E+00 -2.9858642E-01  0.0000000E+00  1.1246462E+00  1.3247701E-01 -2.6697671E-02  1.8957086E+01  1.0000000E+00  1.0000000E+00 -3.8287630E-16 -8.1366877E+00  3.8398569E+00  4.5341612E+00  1.0075158E+01  1.0366082E+01  7.0754799E+03 -1.1168169E+01  1.5244432E+00  1.2231798E-01  1.2231798E-01  1.1246462E+00  1.3247701E-01 -2.6697671E-02  1.8957086E+01  1.1246462E+00  1.3247701E-01 -2.6697671E-02  1.0000000E+00 -1.1102230E-16 -2.8865799E-15  1.4898977E-01 -1.2486081E-16 -1.4707903E-17
  3.0937500E+00 -2.4126288E-01  0.0000000E+00  1.3077405E+00  3.0032155E-01 -1.0256101E-01  2.1996695E+01  1.0000000E+00  1.0000000E+00 -3.8287630E-16 -2.5776368E+00 -3.5022499E+00 -7.2881128E+00  8.4868460E+00 -1.3117089E+01 -1.2344702E+04  9.2666585E+00  0.0000000E+00  0.0000000E+00  0.0000000E+00  1.3077405E+00  3.0032155E-01 -1.0256101E-01  2.1996695E+01  1.3077405E+00  3.0032155E-01 -1.0256101E-01  1.0000000E+00 -1.1102230E-16 -2.8865799E-15  3.9274265E-01 -1.4518836E-16 -3.3342390E-17
  3.0937500E+00 -1.8237380E-01  0.0000000E+00  1.5160883E+00  3.3979936E-01 -2.2391143E-01  2.6208760E+01  1.0000000E+00  1.0000000E+00 -3.8287630E-16 -5.1249594E+00  9.0705159E+00  8.7536141E-01  1.0454938E+01  2.4431456E+01  8.3776615E+04 -2.5594073E+01 -1.4829002E+00  3.3567249E-01  3.3567249E-01  1.5160883E+00  3.3979936E-01 -2.2391143E-01  2.6208760E+01  1.5160883E+00  3.3979936E-01 -2.2391143E-01  1.0000000E+00 -1.1102230E-16 -2.8865799E-15  5.1516583E-01 -1.6831961E-16 -3.7725307E-17
  3.0937500E+00 -1.2227301E-01  0.0000000E+00  1.5647492E+00  1.7373558E-01 -2.8207089E-01  2.5556260E+01  1.0000000E+00  1.0000000E+00 -3.8287630E-16 -2.3677069E-01  7.0276800E+00 -6.0681074E+00  9.2879640E+00 -1.1079974E+01  1.2021420E+04  8.5226116E+00 -4.4608073E+00  1.7449658E+00  1.7449658E+00  1.5647492E+00  1.7373558E-01 -2.8207089E-01  2.5556260E+01  1.5647492E+00  1.7373558E-01 -2.8207089E-01  1.0000000E+00 -1.1102230E-16 -2.8865799E-15  2.7185261E-01 -1.7372205E-16 -1.9288524E-17
  3.0937500E+00 -6.1345923E-02  0.0000000E+00  1.5572343E+00  1.1290750E-01 -2.0464128E-01  1.6034118E+01  1.0000000E+00  1.0000000E+00 -3.8287630E-16 -1.0500584E+01 -1.0342618E+01  5.0197347E+00  1.5570156E+01  5.4543235E+00  1.9393780E+05 -7.8560473E+00 -3.7299414E+00  2.2282775E+00  2.2282775E+00  1.5572343E+00  1.1290750E-01 -2.0464128E-01  1.6034118E+01  1.5572343E+00  1.1290750E-01 -2.0464128E-01  1.0000000E+00 -1.1102230E-16 -2.8865799E-15  1.7582343E-01 -1.7288774E-16 -1.2535250E-17
  3.0937500E+00  0.0000000E+00  0.0000000E+00  1.5194842E+00  3.0692729E-01 -1.9951843E-01  6.9924940E+00  1.0000000E+00  1.0000000E+00 -3.8287630E-16 -4.7316902E+00 -1.6382194E+00  3.8652252E-01  5.0221564E+00 -2.0893457E+00  6.6369326E+02  1.5588419E-01 -2.2328889E+00  9.4062209E-01  9.4062209E-01  1.5194842E+00  3.0692729E-01 -1.9951843E-01  6.9924940E+00  1.5194842E+00  3.0692729E-01 -1.9951843E-01  1.0000000E+00 -1.1102230E-16 -2.8865799E-15  4.6637116E-01 -1.6869663E-16 -3.4075775E-17
  3.0937500E+00  6.1345923E-02  0.0000000E+00  1.4661634E+00  2.5302500E-01 -1.2878984E-01  9.7545307E+00  1.0000000E+00  1.0000000E+00 -3.8287630E-16  8.0211756E+00 -5.9043450E+00  2.5393993E-01  9.9631839E+00  1.1725229E+01  1.0016964E+05 -8.7790082E+00  2.5989108E+00 -1.7666369E+00 -1.7666369E+00  1.4661634E+00  2.5302500E-01 -1.2878984E-01  9.7545307E+00  1.4661634E+00  2.5302500E-01 -1.2878984E-01  1.0000000E+00 -1.1102230E-16 -2.8865799E-15  3.7097599E-01 -1.6277683E-16 -2.8091418E-17
  3.0937500E+00  1.2227301E-01  0.0000000E+00  1.4744855E+00 -1.1679232E-02 -7.2051297E-02  1.2216470E+01  1.0000000E+00  1.0000000E+00 -3.8287630E-16 -1.1460937E+00  6.6768294E+00 -6.1556283E+00  9.1534333E+00  5.8542751E+00  4.2518868E+03 -7.3315280E+00 -1.8775963E+00  1.8492288E-01  1.8492288E-01  1.4744855E+00 -1.1679232E-02 -7.2051297E-02  1.2216470E+01  1.4744855E+00 -1.1679232E-02 -7.2051297E-02  1.0000000E+00 -1.1102230E-16 -2.8865799E-15 -1.7220859E-02 -1.6370078E-16  1.2966552E-18
  3.0937500E+00  1.8237380E-01  0.0000000E+00  1.6199907E+00 -1.5786823E-01 -7.9380628E-02  5.8818461E+00  1.0000000E+00  1.0000000E+00 -3.8287630E-16  1.3406111E+01  9.1209900E+00 -1.8653762E+00  1.6321639E+01 -4.5148175E+00  1.2195733E+05 -2.4870043E+00 -4.4474220E+00  2.2078017E+00  2.2078017E+00  1.6199907E+00 -1.5786823E-01 -7.9380628E-02  5.8818461E+00  1.6199907E+00 -1.5786823E-01 -7.9380628E-02  1.0000000E+00 -1.1102230E-16 -2.8865799E-15 -2.5574507E-01 -1.7985510E-16  1.7526895E-17
  3.0937500E+00  2.4126288E-01  0.0000000E+00  1.5058978E+00 -1.0361145E-01  1.3597669E-02  2.5447510E+00  1.0000000E+00  1.0000000E+00 -3.8287630E-16  1.8332401E+01  3.3228986E+00  7.0000388E+00  1.9902742E+01  2.4463315E+01  8.6947562E+05 -3.8631093E+01  4.5624591E+00 -1.6479820E+00 -1.6479820E+00  1.5058978E+00 -1.0361145E-01  1.3597669E-02  2.5447510E+00  1.5058978E+00 -1.0361145E-01  1.3597669E-02  1.0000000E+00 -1.1102230E-16 -2.8865799E-15 -1.5602826E-01 -1.6718825E-16  1.1503182E-17
  3.0937500E+00  2.9858642E-01  0.0000000E+00  1.4746242E+00 -4.6315919E-02 -1.6610308E-03  8.2478681E+00  1.0000000E+00  1.0000000E+00 -3.8287630E-16  5.4682408E+00  8.9800970E+00 -4.7870056E+00  1.1552455E+01 -2.4140939E+00  1.9805149E+05  1.0332058E+01  4.4781905E+00 -2.4057740E+00 -2.4057740E+00  1.4746242E+00 -4.6315919E-02 -1.6610308E-03  8.2478681E+00  1.4746242E+00 -4.6315919E-02 -1.6610308E-03  1.0000000E+00 -1.1102230E-16 -2.8865799E-15 -6.8298575E-02 -1.6371617E-16  5.1421000E-18
  3.0937500E+00  3.5402987E-01  0.0000000E+00  1.4842874E+00 -1.1573896E-01 -1.0568738E-02  1.9085222E+01  1.0000000E+00  1.0000000E+00 -3.8287630E-16  6.0747456E+00  2.1122124E+00  3.2858506E+00  7.2222427E+00 -1.0956503E+01 -5.6538548E+03  1.0130034E+01  0.0000000E+00  0.0000000E+00  0.0000000E+00  1.4842874E+00 -1.1573896E-01 -1.0568738E-02  1.9085222E+01  1.4842874E+00 -1.1573896E-01 -1.0568738E-02  1.0000000E+00 -1.1102230E-16 -2.8865799E-15 -1.7178988E-01 -1.6478900E-16  1.2849606E-17
  3.0937500E+00  4.0732380E-01  0.0000000E+00  1.1441635E+00 -9.5532934E-02  1.0358715E-01  2.6540912E+01  1.0000000E+00  1.0000000E+00 -3.8287630E-16  1.4650569E+00  1.0559464E+00  9.9950804E+00  1.0156921E+01  5.4166277E+00  7.0277728E+02 -5.6878649E+00 -2.5147200E-01  1.8320226E-01  1.8320226E-01  1.1441635E+00 -9.5532934E-02  1.0358715E-01  2.6540912E+01  1.1441635E+00 -9.5532934E-02  1.0358715E-01  1.0000000E+00 -1.1102230E-16 -2.8865799E-15 -1.0930530E-01 -1.2702767E-16  1.0606286E-17
  3.0937500E+00  4.5824743E-01  0.0000000E+00  1.2137422E+00 -1.2799754E-01  2.7567789E-02  2.7548124E+01  1.0000000E+00  1.0000000E+00 -3.8287630E-16 -1.3914795E+01  4.2283098E+00 -1.3840845E+01  2.0076582E+01  5.8212593E+01  8.2190628E+06 -6.4154768E+01 -5.7056167E+00  2.9169212E+00  2.9169212E+00  1.2137422E+00 -1.2799754E-01  2.7567789E-02  2.7548124E+01  1.2137422E+00 -1.2799754E-01  2.7567789E-02  1.0000000E+00 -1.1102230E-16 -2.8865799E-15 -1.5535601E-01 -1.3475245E-16  1.4210581E-17
  3.0937500E+00  5.0663008E-01  0.0000000E+00  1.3378736E+00 -1.3976870E-01 -1.0046099E-01  2.7125274E+01  1.0000000E+00  1.0000000E+00 -3.8287630E-16 -5.8721063E+00 -7.7972843E+00  8.7879185E+00  1.3134184E+01  1.4237209E+01  5.1428651E+04 -7.9531320E+00 -1.6722978E+00  1.4577758E+00  1.4577758E+00  1.3378736E+00 -1.3976870E-01 -1.0046099E-01  2.7125274E+01  1.3378736E+00 -1.3976870E-01 -1.0046099E-01  1.0000000E+00 -1.1102230E-16 -2.8865799E-15 -1.8699286E-01 -1.4853381E-16  1.5517443E-17
  3.0937500E+00  5.5235066E-01  0.0000000E+00  1.2806088E+00 -2.2342320E-02 -6.7925984E-02  2.8248094E+01  1.0000000E+00  1.0000000E+00 -3.8287630E-16  1.7604311E+00 -7.3022274E+00 -4.1469507E+00  8.5801423E+00  2.2394731E+00  4.5237061E+01 -2.2894880E+00 -3.5457502E-02  4.1342171E-02  4.1342171E-02  1.2806088E+00 -2.2342320E-02 -6.7925984E-02  2.8248094E+01  1.2806088E+00 -2.2342320E-02 -6.7925984E-02  1.0000000E+00 -1.1102230E-16 -2.8865799E-15 -2.8611772E-02 -1.4217614E-16  2.4804958E-18
  3.0937500E+00  5.9533541E-01  0.0000000E+00  1.0552985E+00 -4.3686293E-03  3.0165946E-02  2.8596325E+01  1.0000000E+00  1.0000000E+00 -3.8287630E-16  7.1355983E+00 -7.5139755E+00  1.5531072E+01  1.8670586E+01  1.2146071E+01  1.4075700E+06 -1.0019103E+01  5.4049225E+00 -2.7649628E+00 -2.7649628E+00  1.0552985E+00 -4.3686293E-03  3.0165946E-02  2.8596325E+01  1.0552985E+00 -4.3686293E-03  3.0165946E-02  1.0000000E+00 -1.1102230E-16 -2.8865799E-15 -4.6102081E-03 -1.1716167E-16  4.8501528E-19
  3.0937500E+00  6.3555433E-01  0.0000000E+00  6.8200531E-01  9.2868985E-02  1.3195782E-01  3.0637283E+01  1.0000000E+00  1.0000000E+00 -3.8287630E-16  4.4684973E+00 -3.1456611E+00  4.4757722E+00  7.0636526E+00  6.7837443E+00  2.7824562E+03 -5.9099819E+00 -7.2894683E-01  7.7428783E-01  7.7428783E-01  6.8200531E-01  9.2868985E-02  1.3195782E-01  3.0637283E+01  6.8200531E-01  9.2868985E-02  1.3195782E-01  1.0000000E+00 -1.1102230E-16 -2.8865799E-15  6.3337141E-02 -7.5717800E-17 -1.0310529E-17
  3.0937500E+00  6.7301652E-01  0.0000000E+00  5.6650939E-01  1.3887110E-01  2.1358354E-02  3.4253413E+01  1.0000000E+00  1.0000000E+00 -3.8287630E-16 -1.5755343E+01  3.4172452E+00  2.8319646E+00  1.6368519E+01  3.6373631E+01  1.9991876E+06 -3.6287978E+01  4.0823459E+00 -2.7226700E+00 -2.7226700E+00  5.6650939E-01  1.3887110E-01  2.1358354E-02  3.4253413E+01  5.6650939E-01  1.3887110E-01  2.1358354E-02  1.0000000E+00 -1.1102230E-16 -2.8865799E-15  7.8671783E-02 -6.2895177E-17 -1.5417789E-17
  3.0937500E+00  7.0776509E-01  0.0000000E+00  6.8057024E-01  2.6183894E-02 -9.4636083E-02  3.2862235E+01  1.0000000E+00  1.0000000E+00 -3.8287630E-16 -6.0525500E+00 -1.1820341E+01 -1.2866544E+01  1.8490586E+01  2.6673385E+01  1.4664777E+06 -1.2471157E+01  4.7696656E+00 -2.2431737E+00 -2.2431737E+00  6.8057024E-01  2.6183894E-02 -9.4636083E-02  3.2862235E+01  6.8057024E-01  2.6183894E-02 -9.4636083E-02  1.0000000E+00 -1.1102230E-16 -2.8865799E-15  1.7819979E-02 -7.5558475E-17 -2.9069962E-18
  3.0937500E+00  7.3987156E-01  0.0000000E+00  7.0827732E-01  6.3165535E-02 -5.8441148E-02  2.8563158E+01  1.0000000E+00  1.0000000E+00 -3.8287630E-16 -4.6786362E+00 -8.1050943E+00  1.1656256E+01  1.4948261E+01  9.4569215E+00  4.2744054E+03 -7.8206872E+00 -4.7698626E-01  4.2384506E-01  4.2384506E-01  7.0827732E-01  6.3165535E-02 -5.8441148E-02  2.8563158E+01  7.0827732E-01  6.3165535E-02 -5.8441148E-02  1.0000000E+00 -1.1102230E-16 -2.8865799E-15  4.4738716E-02 -7.8634579E-17 -7.0127832E-18
  3.0937500E+00  7.6943050E-01  0.0000000E+00  4.7776985E-01  1.1444638E-01 -7.7036831E-02  2.3659498E+01  1.0000000E+00  1.0000000E+00 -3.8287630E-16 -3.5722177E+00 -1.0419441E+00  5.3656490E+00  6.5296689E+00  2.2441349E+00  3.8794974E+03 -7.6986590E-01  1.7420164E+00 -1.1883806E+00 -1.1883806E+00  4.7776985E-01  1.1444638E-01 -7.7036831E-02  2.3659498E+01  4.7776985E-01  1.1444638E-01 -7.7036831E-02  1.0000000E+00 -1.1102230E-16 -2.8865799E-15  5.4679029E-02 -5.3043109E-17 -1.2706100E-17
  3.0937500E+00  7.9655418E-01  0.0000000E+00  3.6093766E-01  9.8392452E-02 -8.2446317E-03  1.9318284E+01  1.0000000E+00  1.0000000E+00 -3.8287630E-16  9.6379193E+00 -5.8717806E+00  3.1214958E+00  1.1709442E+01  2.3041861E+01  1.2794336E+05 -2.1049297E+01  2.1391367E+00 -8.6368136E-01 -8.6368136E-01  3.6093766E-01  9.8392452E-02 -8.2446317E-03  1.9318284E+01  3.6093766E-01  9.8392452E-02 -8.2446317E-03  1.0000000E+00 -1.1102230E-16 -2.8865799E-15  3.5513541E-02 -4.0072130E-17 -1.0923757E-17
  3.0937500E+00  8.2136784E-01  0.0000000E+00  3.7075676E-01  7.0307172E-02  5.0133210E-02  1.7666508E+01  1.0000000E+00  1.0000000E+00 -3.8287630E-16 -1.4829052E+00  3.4424116E+00 -4.6770224E+00  5.9936419E+00 -2.9242219E+00  3.9558419E+02  3.5183633E+00  2.0153215E+00 -1.2887335E+00 -1.2887335E+00  3.7075676E-01  7.0307172E-02  5.0133210E-02  1.7666508E+01  3.7075676E-01  7.0307172E-02  5.0133210E-02  1.0000000E+00 -1.1102230E-16 -2.8865799E-15  2.6066859E-02 -4.1162269E-17 -7.8056641E-18
  3.0937500E+00  8.4400524E-01  0.0000000E+00  3.6419903E-01  3.0684709E-02  5.6144411E-03  1.6598588E+01  1.0000000E+00  1.0000000E+00 -3.8287630E-16 -9.0437624E-01  4.9276544E-01  5.0443171E+00  5.1483832E+00 -5.0549368E+00 -4.6656021E+02  3.3110426E+00  0.0000000E+00  0.0000000E+00  0.0000000E+00  3.6419903E-01  3.0684709E-02  5.6144411E-03  1.6598588E+01  3.6419903E-01  3.0684709E-02  5.6144411E-03  1.0000000E+00 -1.1102230E-16 -2.8865799E-15  1.1175341E-02 -4.0434215E-17 -3.4066870E-18
  3.0937500E+00  8.6460502E-01  0.0000000E+00  2.5715450E-01  3.2243140E-02 -2.2060013E-02  1.5839323E+01  1.0000000E+00  1.0000000E+00 -3.8287630E-16 -3.9192801E+00 -3.7348276E+00  5.3413392E+00  7.6052350E+00  5.4176010E-01  3.6941659E+03 -2.7308329E+00  2.4866755E+00 -7.4607335E-01 -7.4607335E-01  2.5715450E-01  3.2243140E-02 -2.2060013E-02  1.5839323E+01  2.5715450E-01  3.2243140E-02 -2.2060013E-02  1.0000000E+00 -1.1102230E-16 -2.8865799E-15  8.2914684E-03 -2.8549884E-17 -3.5797076E-18
  3.0937500E+00  8.8330740E-01  0.0000000E+00  2.8453263E-01  6.0678610E-02 -1.4443823E-01  1.6500429E+01  1.0000000E+00  1.0000000E+00 -3.8287630E-16 -1.5488365E+01  1.0593805E+00 -8.0685567E+00  1.7496095E+01  3.1290387E+01  5.8817430E+05 -1.9070943E+01 -2.9960041E+00  1.7665271E+00  1.7665271E+00  2.8453263E-01  6.0678610E-02 -1.4443823E-01  1.6500429E+01  2.8453263E-01  6.0678610E-02 -1.4443823E-01  1.0000000E+00 -1.1102230E-16 -2.8865799E-15  1.7265045E-02 -3.1589468E-17 -6.7366790E-18
  3.0937500E+00  9.0025164E-01  0.0000000E+00  2.3530033E-01  9.7439546E-02 -2.4868549E-01  1.7316174E+01  1.0000000E+00  1.0000000E+00 -3.8287630E-16 -1.4960672E+00 -2.1793601E+00  1.5957140E+01  1.6174614E+01  1.4130277E+01  1.9843452E+04 -7.3521909E+00 -9.4668069E-01  8.0806162E-01  8.0806162E-01  2.3530033E-01  9.7439546E-02 -2.4868549E-01  1.7316174E+01  2.3530033E-01  9.7439546E-02 -2.4868549E-01  1.0000000E+00 -1.1102230E-16 -2.8865799E-15  2.2927557E-02 -2.6123584E-17 -1.0817963E-17
  3.0937500E+00  9.1557392E-01  0.0000000E+00  1.7824906E-01  1.3037596E-01 -2.0619840E-01  1.6192889E+01  1.0000000E+00  1.0000000E+00 -3.8287630E-16  7.5188932E+00 -5.9405932E+00 -8.7414040E+00  1.2970603E+01  1.4727043E+01  4.5709524E+04 -1.8834882E+01 -2.0249598E+00  8.3061875E-01  8.3061875E-01  1.7824906E-01  1.3037596E-01 -2.0619840E-01  1.6192889E+01  1.7824906E-01  1.3037596E-01 -2.0619840E-01  1.0000000E+00 -1.1102230E-16 -2.8865799E-15  2.3239392E-02 -1.9789621E-17 -1.4474639E-17
  3.0937500E+00  9.2940575E-01  0.0000000E+00  3.2648998E-01  7.6118269E-02 -4.9732444E-02  1.3666021E+01  1.0000000E+00  1.0000000E+00 -3.8287630E-16  2.2150409E+01 -8.9562189E+00 -1.3808362E+01  2.7595749E+01  1.0734846E+02  5.7138438E+06 -1.1486505E+02 -1.8889440E+00  4.6786296E-01  4.6786296E-01  3.2648998E-01  7.6118269E-02 -4.9732444E-02  1.3666021E+01  3.2648998E-01  7.6118269E-02 -4.9732444E-02  1.0000000E+00 -1.1102230E-16 -2.8865799E-15  2.4851852E-02 -3.6247670E-17 -8.4508255E-18
  3.0937500E+00  9.4187279E-01  0.0000000E+00  3.3952049E-01  2.8956084E-02  1.4868992E-01  1.2184321E+01  1.0000000E+00  1.0000000E+00 -3.8287630E-16  1.9480985E+01 -5.2655207E+00  1.2072491E+01  2.3515517E+01  8.0745180E+01  3.5660498E+06 -7.6890539E+01  2.7267205E+00 -1.2491624E+00 -1.2491624E+00  3.3952049E-01  2.8956084E-02  1.4868992E-01  1.2184321E+01  3.3952049E-01  2.8956084E-02  1.4868992E-01  1.0000000E+00 -1.1102230E-16 -2.8865799E-15  9.8311839E-03 -3.7694347E-17 -3.2147711E-18
  3.0937500E+00  9.5309403E-01  0.0000000E+00  2.7954315E-01  2.8683389E-02  1.2492637E-01  1.2396763E+01  1.0000000E+00  1.0000000E+00 -3.8287630E-16 -1.7095622E+01  4.1696783E+00 -2.1117851E+00  1.7723040E+01 -6.5442774E+01 -1.0230132E+06  5.9216104E+01  0.0000000E+00  0.0000000E+00  0.0000000E+00  2.7954315E-01  2.8683389E-02  1.2492637E-01  1.2396763E+01  2.7954315E-01  2.8683389E-02  1.2492637E-01  1.0000000E+00 -1.1102230E-16 -2.8865799E-15  8.0182451E-03 -3.1035525E-17 -3.1844959E-18