TITLE = "DNS FLOW Y-SLICE"
variables = "X", "Y", "Z", "U", "V", "W", "P", "T", "D", "H", "Vorx","Vory","Vorz","VorM","Qcr","Delta","Lambda2", "SWIrlStrengthR1","SWIrlStrengthR2","SWIrlStrengthI2", "Uprime","vprime","wprime","pprime","g1prime","g2prime","g3prime", "Tprime", "Dprime","Mprime","uvprime", "UDprime", "vDprime"
ZONE T = "           0  0.00000E+00 ", I =   65, J =    1, K =   65, F =POINT
  0.0000000E+00  9.8764516E-01  0.0000000E+00 -1.6280684E-02 -1.6525995E-02 -2.2154036E-01  7.9656151E+00  1.0000000E+00  1.0000000E+00 -3.8287630E-16 -1.9143494E+01  1.1197701E+00  1.4282174E+01  2.3910411E+01  3.2854568E+01  1.6795179E+05 -2.5904343E+01 -9.2087174E-01  4.6268754E-01  4.6268754E-01 -1.6280684E-02 -1.6525995E-02 -2.2154036E-01  7.9656151E+00 -1.6280684E-02 -1.6525995E-02 -2.2154036E-01  1.0000000E+00 -1.1102230E-16 -2.8865799E-15  2.6905450E-04  1.8075190E-18  1.8347540E-18
  9.3750000E-02  9.8764516E-01  0.0000000E+00  8.7467027E-04 -1.0249694E-03 -2.1261801E-01  1.3367052E+01  1.0000000E+00  1.0000000E+00 -3.8287630E-16 -8.9867345E+00  3.7710244E+00  1.3212560E+00  9.8350261E+00  1.1660432E+01  7.0107459E+03 -1.1364081E+01 -4.5359583E-01  1.7934888E-01  1.7934888E-01  8.7467027E-04 -1.0249694E-03 -2.1261801E-01  1.3367052E+01  8.7467027E-04 -1.0249694E-03 -2.1261801E-01  1.0000000E+00 -1.1102230E-16 -2.8865799E-15 -8.9651025E-07 -9.7107907E-20  1.1379446E-19
  1.8750000E-01  9.8764516E-01  0.0000000E+00 -3.2248705E-02  2.2342467E-02 -2.5669988E-01  1.5258763E+01  1.0000000E+00  1.0000000E+00 -3.8287630E-16 -4.2248789E+00 -3.9820812E+00  1.8784612E+01  1.9661338E+01  5.4773270E+00  8.3901672E+04 -1.5580838E+00  3.2747460E+00 -1.7334823E+00 -1.7334823E+00 -3.2248705E-02  2.2342467E-02 -2.5669988E-01  1.5258763E+01 -3.2248705E-02  2.2342467E-02 -2.5669988E-01  1.0000000E+00 -1.1102230E-16 -2.8865799E-15 -7.2051564E-04  3.5803255E-18 -2.4805122E-18
  2.8125000E-01  9.8764516E-01  0.0000000E+00 -2.3230079E-03  2.7055407E-02 -1.9200185E-01  1.6452233E+01  1.0000000E+00  1.0000000E+00 -3.8287630E-16  2.7065227E+01 -2.8658827E+00 -2.0038831E+01  3.3797848E+01  1.4612026E+01  5.2251070E+04 -2.5578045E+00 -2.2965894E+00  7.6592055E-01  7.6592055E-01 -2.3230079E-03  2.7055407E-02 -1.9200185E-01  1.6452233E+01 -2.3230079E-03  2.7055407E-02 -1.9200185E-01  1.0000000E+00 -1.1102230E-16 -2.8865799E-15 -6.2849923E-05  2.5790568E-19 -3.0037536E-18
  3.7500000E-01  9.8764516E-01  0.0000000E+00  4.0092223E-02  7.0933785E-03 -1.7653772E-02  1.8019715E+01  1.0000000E+00  1.0000000E+00 -3.8287630E-16  2.2210368E+01 -3.9657479E+00  1.5495135E+01  2.7370181E+01  2.4527144E-01  1.1701440E+02 -1.0157867E+00 -1.2915293E+00  5.2295849E-01  5.2295849E-01  4.0092223E-02  7.0933785E-03 -1.7653772E-02  1.8019715E+01  4.0092223E-02  7.0933785E-03 -1.7653772E-02  1.0000000E+00 -1.1102230E-16 -2.8865799E-15  2.8438931E-04 -4.4511309E-18 -7.8752321E-19
  4.6875000E-01  9.8764516E-01  0.0000000E+00 -9.6895799E-03  9.8777418E-03 -3.8030237E-02  1.8936056E+01  1.0000000E+00  1.0000000E+00 -3.8287630E-16 -2.7044390E+01  5.6005754E+00  3.9864478E+00  2.7904430E+01  3.1474893E+01  1.5628059E+05 -1.6823131E+01  8.1281157E-01 -8.2202724E-01 -8.2202724E-01 -9.6895799E-03  9.8777418E-03 -3.8030237E-02  1.8936056E+01 -9.6895799E-03  9.8777418E-03 -3.8030237E-02  1.0000000E+00 -1.1102230E-16 -2.8865799E-15 -9.5711168E-05  1.0757595E-18 -1.0966496E-18
  5.6250000E-01  9.8764516E-01  0.0000000E+00  7.6078866E-02  8.7355196E-03 -9.0270923E-02  1.8440293E+01  1.0000000E+00  1.0000000E+00 -3.8287630E-16  1.6657576E+01  3.3898760E+00 -2.0492966E+01  2.6625697E+01 -2.3970968E+00  8.3417236E+04  1.4611438E+01 -4.0329045E+00  2.0059708E+00  2.0059708E+00  7.6078866E-02  8.7355196E-03 -9.0270923E-02  1.8440293E+01  7.6078866E-02  8.7355196E-03 -9.0270923E-02  1.0000000E+00 -1.1102230E-16 -2.8865799E-15  6.6458842E-04 -8.4464508E-18 -9.6983750E-19
  6.5625000E-01  9.8764516E-01  0.0000000E+00  7.6323048E-02  4.5450490E-03  7.7513119E-03  1.7832146E+01  1.0000000E+00  1.0000000E+00 -3.8287630E-16  1.6887262E+01  1.5504642E+00  2.5010418E+01  3.0217620E+01  1.5552506E+01  9.6562778E+04  1.7827036E+00  2.6457967E+00 -1.1222631E+00 -1.1222631E+00  7.6323048E-02  4.5450490E-03  7.7513119E-03  1.7832146E+01  7.6323048E-02  4.5450490E-03  7.7513119E-03  1.0000000E+00 -1.1102230E-16 -2.8865799E-15  3.4689200E-04 -8.4735606E-18 -5.0460181E-19
  7.5000000E-01  9.8764516E-01  0.0000000E+00  1.1781575E-01 -5.3187589E-03  2.3205938E-02  1.8309549E+01  1.0000000E+00  1.0000000E+00 -3.8287630E-16 -9.9219870E+00  4.1099772E+00 -3.1771711E+01  3.3537730E+01  5.8212045E+00  1.6606970E+04  3.7785771E+00  2.1709548E+00 -1.1830294E+00 -1.1830294E+00  1.1781575E-01 -5.3187589E-03  2.3205938E-02  1.8309549E+01  1.1781575E-01 -5.3187589E-03  2.3205938E-02  1.0000000E+00 -1.1102230E-16 -2.8865799E-15 -6.2663357E-04 -1.3080176E-17  5.9050086E-19
  8.4375000E-01  9.8764516E-01  0.0000000E+00  1.5948329E-01 -1.0986911E-02 -2.0686259E-02  1.9051848E+01  1.0000000E+00  1.0000000E+00 -3.8287630E-16  1.7861156E+00  2.1584051E+00  2.6763600E+01  2.6909834E+01  4.6599171E+00  2.5841698E+03 -9.8437002E+00 -1.4811736E+00  5.7637763E-01  5.7637763E-01  1.5948329E-01 -1.0986911E-02 -2.0686259E-02  1.9051848E+01  1.5948329E-01 -1.0986911E-02 -2.0686259E-02  1.0000000E+00 -1.1102230E-16 -2.8865799E-15 -1.7522287E-03 -1.7706202E-17  1.2197921E-18
  9.3750000E-01  9.8764516E-01  0.0000000E+00 -1.9230794E-02 -3.2466564E-03  2.2376683E-02  1.9568336E+01  1.0000000E+00  1.0000000E+00 -3.8287630E-16  1.3775886E+01 -2.0943115E-01  2.9976145E+01  3.2990729E+01  6.4858533E+00  1.3084297E+05  3.2011269E+00  3.7369975E+00 -1.6358057E+00 -1.6358057E+00 -1.9230794E-02 -3.2466564E-03  2.2376683E-02  1.9568336E+01 -1.9230794E-02 -3.2466564E-03  2.2376683E-02  1.0000000E+00 -1.1102230E-16 -2.8865799E-15  6.2435781E-05  2.1350470E-18  3.6045127E-19
  1.0312500E+00  9.8764516E-01  0.0000000E+00  2.6450274E-02 -1.4741923E-02  2.3537650E-02  2.0095425E+01  1.0000000E+00  1.0000000E+00 -3.8287630E-16 -1.5213677E+01  1.8921031E+00 -3.8911333E+01  4.1822576E+01  1.0598258E+01  2.7074252E+04 -2.8313736E+00 -1.8793951E+00  1.0906627E+00  1.0906627E+00  2.6450274E-02 -1.4741923E-02  2.3537650E-02  2.0095425E+01  2.6450274E-02 -1.4741923E-02  2.3537650E-02  1.0000000E+00 -1.1102230E-16 -2.8865799E-15 -3.8992792E-04 -2.9365704E-18  1.6366823E-18
  1.1250000E+00  9.8764516E-01  0.0000000E+00  1.3041328E-01 -2.1663823E-02 -6.4264209E-02  2.0697604E+01  1.0000000E+00  1.0000000E+00 -3.8287630E-16 -1.2734088E+01 -3.3907564E+00  1.5075089E+01  2.0022800E+01  1.0141879E+01  1.7780042E+04 -4.6773925E+00  1.9543707E+00 -6.1602930E-01 -6.1602930E-01  1.3041328E-01 -2.1663823E-02 -6.4264209E-02  2.0697604E+01  1.3041328E-01 -2.1663823E-02 -6.4264209E-02  1.0000000E+00 -1.1102230E-16 -2.8865799E-15 -2.8252502E-03 -1.4478782E-17  2.4051676E-18
  1.2187500E+00  9.8764516E-01  0.0000000E+00  1.3796279E-01 -9.5653587E-03 -1.0078465E-01  2.1653723E+01  1.0000000E+00  1.0000000E+00 -3.8287630E-16  2.0559348E+00 -2.8647304E+00 -1.1755150E+01  1.2272616E+01 -6.0590339E+00 -6.1862034E+02  6.1398646E+00  0.0000000E+00  0.0000000E+00  0.0000000E+00  1.3796279E-01 -9.5653587E-03 -1.0078465E-01  2.1653723E+01  1.3796279E-01 -9.5653587E-03 -1.0078465E-01  1.0000000E+00 -1.1102230E-16 -2.8865799E-15 -1.3196636E-03 -1.5316947E-17  1.0619681E-18
  1.3125000E+00  9.8764516E-01  0.0000000E+00  5.6761251E-02 -7.0762880E-03 -6.4489513E-02  2.2686626E+01  1.0000000E+00  1.0000000E+00 -3.8287630E-16  1.2932743E+01 -3.9202157E+00  4.2607478E+01  4.4699229E+01  8.9642307E+00  1.3717346E+05 -4.8020231E+00  3.3787500E+00 -1.7464661E+00 -1.7464661E+00  5.6761251E-02 -7.0762880E-03 -6.4489513E-02  2.2686626E+01  5.6761251E-02 -7.0762880E-03 -6.4489513E-02  1.0000000E+00 -1.1102230E-16 -2.8865799E-15 -4.0165896E-04 -6.3017647E-18  7.8562579E-19
  1.4062500E+00  9.8764516E-01  0.0000000E+00 -5.8813771E-02 -1.3399901E-03  1.0968003E-02  2.3618029E+01  1.0000000E+00  1.0000000E+00 -3.8287630E-16  9.7292218E+00 -1.7220519E+00 -1.5651454E+00  1.0003644E+01  6.5599173E+00  2.7214585E+03 -2.1894731E+00 -8.4308806E-01  6.9015764E-01  6.9015764E-01 -5.8813771E-02 -1.3399901E-03  1.0968003E-02  2.3618029E+01 -5.8813771E-02 -1.3399901E-03  1.0968003E-02  1.0000000E+00 -1.1102230E-16 -2.8865799E-15  7.8809871E-05  6.5296403E-18  1.4876879E-19
  1.5000000E+00  9.8764516E-01  0.0000000E+00 -1.0152172E-01  3.4815139E-03 -4.5558967E-02  2.5014745E+01  1.0000000E+00  1.0000000E+00 -3.8287630E-16 -2.7739617E+01  2.0527589E+00  1.7767675E+01  3.3005916E+01  1.6075424E+00  3.3108716E+04  8.3118535E+00  2.8954362E+00 -1.7583551E+00 -1.7583551E+00 -1.0152172E-01  3.4815139E-03 -4.5558967E-02  2.5014745E+01 -1.0152172E-01  3.4815139E-03 -4.5558967E-02  1.0000000E+00 -1.1102230E-16 -2.8865799E-15 -3.5344928E-04  1.1271175E-17 -3.8652568E-19
  1.5937500E+00  9.8764516E-01  0.0000000E+00 -2.9646267E-02 -1.4127946E-02 -1.1073584E-01  2.6086519E+01  1.0000000E+00  1.0000000E+00 -3.8287630E-16  3.9418332E+00 -5.8627229E+00 -3.1906472E+01  3.2679237E+01  1.0000006E+01  3.3296952E+04 -2.9067821E+00  2.2257598E+00 -1.0920557E+00 -1.0920557E+00 -2.9646267E-02 -1.4127946E-02 -1.1073584E-01  2.6086519E+01 -2.9646267E-02 -1.4127946E-02 -1.1073584E-01  1.0000000E+00 -1.1102230E-16 -2.8865799E-15  4.1884086E-04  3.2913968E-18  1.5685171E-18
  1.6875000E+00  9.8764516E-01  0.0000000E+00 -9.9294207E-03 -8.7190193E-03 -8.5216537E-02  2.6093155E+01  1.0000000E+00  1.0000000E+00 -3.8287630E-16 -3.8613294E+00 -4.6394806E+00  3.5026353E+01  3.5542651E+01  1.3187644E+01  9.2426593E+03 -1.2895318E+01  3.0906366E-01  3.0931794E-02  3.0931794E-02 -9.9294207E-03 -8.7190193E-03 -8.5216537E-02  2.6093155E+01 -9.9294207E-03 -8.7190193E-03 -8.5216537E-02  1.0000000E+00 -1.1102230E-16 -2.8865799E-15  8.6574810E-05  1.1023871E-18  9.6800559E-19
  1.7812500E+00  9.8764516E-01  0.0000000E+00 -1.6941959E-01  1.5012944E-02 -1.2444662E-01  2.5629451E+01  1.0000000E+00  1.0000000E+00 -3.8287630E-16 -9.1419325E+00 -9.5138031E-01  1.6985580E+01  1.9312948E+01  4.1010748E+00  1.3481588E+04  4.1751647E+00  2.0989320E+00 -1.3822373E+00 -1.3822373E+00 -1.6941959E-01  1.5012944E-02 -1.2444662E-01  2.5629451E+01 -1.6941959E-01  1.5012944E-02 -1.2444662E-01  1.0000000E+00 -1.1102230E-16 -2.8865799E-15 -2.5434867E-03  1.8809353E-17 -1.6667716E-18
  1.8750000E+00  9.8764516E-01  0.0000000E+00 -1.9402708E-01  1.5788617E-02 -7.0314456E-02  2.5161427E+01  1.0000000E+00  1.0000000E+00 -3.8287630E-16  2.6333998E+01 -5.8289814E+00 -2.3464161E+00  2.7073273E+01  1.9346123E+01  3.0082979E+04 -1.9206741E+01  4.6488461E-01 -6.5808242E-02 -6.5808242E-02 -1.9402708E-01  1.5788617E-02 -7.0314456E-02  2.5161427E+01 -1.9402708E-01  1.5788617E-02 -7.0314456E-02  1.0000000E+00 -1.1102230E-16 -2.8865799E-15 -3.0634192E-03  2.1541333E-17 -1.7528886E-18
  1.9687500E+00  9.8764516E-01  0.0000000E+00 -1.1819094E-01  8.6689534E-03 -2.1073679E-02  2.5283365E+01  1.0000000E+00  1.0000000E+00 -3.8287630E-16 -8.7545432E+00  3.7256074E+00 -1.6075666E+01  1.8680182E+01 -3.9861635E+00  1.2771480E+04  5.7197566E+00  3.1284033E+00 -1.7743711E+00 -1.7743711E+00 -1.1819094E-01  8.6689534E-03 -2.1073679E-02  2.5283365E+01 -1.1819094E-01  8.6689534E-03 -2.1073679E-02  1.0000000E+00 -1.1102230E-16 -2.8865799E-15 -1.0245918E-03  1.3121831E-17 -9.6244717E-19
  2.0625000E+00  9.8764516E-01  0.0000000E+00 -7.2153901E-02 -8.2194173E-03 -6.7590137E-02  2.5517596E+01  1.0000000E+00  1.0000000E+00 -3.8287630E-16 -3.3599571E+00  3.3542443E-01  9.9296049E+00  1.0488035E+01 -6.5405990E+00 -9.7033811E+02  6.9239791E+00  0.0000000E+00  0.0000000E+00  0.0000000E+00 -7.2153901E-02 -8.2194173E-03 -6.7590137E-02  2.5517596E+01 -7.2153901E-02 -8.2194173E-03 -6.7590137E-02  1.0000000E+00 -1.1102230E-16 -2.8865799E-15  5.9306303E-04  8.0106923E-18  9.1253864E-19
  2.1562500E+00  9.8764516E-01  0.0000000E+00 -1.2156266E-01 -2.3095334E-02 -7.3879094E-02  2.5952769E+01  1.0000000E+00  1.0000000E+00 -3.8287630E-16 -5.2768369E+00 -3.9342445E+00  7.8776728E+00  1.0265526E+01 -1.1039302E+00  3.3082903E+02  2.4354941E+00  1.9943558E+00 -6.0465048E-01 -6.0465048E-01 -1.2156266E-01 -2.3095334E-02 -7.3879094E-02  2.5952769E+01 -1.2156266E-01 -2.3095334E-02 -7.3879094E-02  1.0000000E+00 -1.1102230E-16 -2.8865799E-15  2.8075303E-03  1.3496167E-17  2.5640972E-18
  2.2500000E+00  9.8764516E-01  0.0000000E+00 -3.3012549E-02 -2.6323202E-02 -1.6861106E-01  2.6898714E+01  1.0000000E+00  1.0000000E+00 -3.8287630E-16 -3.3883589E+01  8.2345716E-01 -2.4721759E+01  4.1951651E+01  5.8159069E+01  1.8137235E+06 -1.7381742E+01 -2.8064680E+00  1.5807207E+00  1.5807207E+00 -3.3012549E-02 -2.6323202E-02 -1.6861106E-01  2.6898714E+01 -3.3012549E-02 -2.6323202E-02 -1.6861106E-01  1.0000000E+00 -1.1102230E-16 -2.8865799E-15  8.6899600E-04  3.6651291E-18  2.9224625E-18
  2.3437500E+00  9.8764516E-01  0.0000000E+00 -3.5022775E-02  7.5543065E-03 -2.5519245E-01  2.7093195E+01  1.0000000E+00  1.0000000E+00 -3.8287630E-16 -1.5183477E+00 -2.1832690E+00  3.5131179E+01  3.5231687E+01  2.4201958E+01  1.0034808E+05 -1.1194816E+01 -1.2698883E+00  1.0343838E+00  1.0343838E+00 -3.5022775E-02  7.5543065E-03 -2.5519245E-01  2.7093195E+01 -3.5022775E-02  7.5543065E-03 -2.5519245E-01  1.0000000E+00 -1.1102230E-16 -2.8865799E-15 -2.6457278E-04  3.8883091E-18 -8.3869650E-19
  2.4375000E+00  9.8764516E-01  0.0000000E+00 -7.2823238E-02  4.8931855E-02 -1.9932701E-01  2.6255767E+01  1.0000000E+00  1.0000000E+00 -3.8287630E-16  1.5201311E+01 -6.0681589E+00 -1.9011455E+01  2.5086606E+01 -5.0341968E+00  2.2910493E+03  2.7782902E+00 -2.9691719E+00  1.4094692E+00  1.4094692E+00 -7.2823238E-02  4.8931855E-02 -1.9932701E-01  2.6255767E+01 -7.2823238E-02  4.8931855E-02 -1.9932701E-01  1.0000000E+00 -1.1102230E-16 -2.8865799E-15 -3.5633762E-03  8.0850036E-18 -5.4325272E-18
  2.5312500E+00  9.8764516E-01  0.0000000E+00  1.1711892E-01  3.0335548E-02 -5.2946218E-02  2.4707819E+01  1.0000000E+00  1.0000000E+00 -3.8287630E-16  3.5340751E+01 -8.4107032E+00 -2.9542027E+01  4.6823498E+01  7.6667833E+01  1.9060590E+06 -7.8731029E+01 -1.2261887E+00  1.0092079E-01  1.0092079E-01  1.1711892E-01  3.0335548E-02 -5.2946218E-02  2.4707819E+01  1.1711892E-01  3.0335548E-02 -5.2946218E-02  1.0000000E+00 -1.1102230E-16 -2.8865799E-15  3.5528666E-03 -1.3002812E-17 -3.3679223E-18
  2.6250000E+00  9.8764516E-01  0.0000000E+00  1.8415857E-01  8.6753443E-03  1.3604370E-01  2.2953556E+01  1.0000000E+00  1.0000000E+00 -3.8287630E-16  2.7796342E+01 -5.3153067E+00  1.7811555E+01  3.3438609E+01  7.5322800E+01  2.6581863E+06 -6.1094087E+01  2.3515871E+00 -1.1322958E+00 -1.1322958E+00  1.8415857E-01  8.6753443E-03  1.3604370E-01  2.2953556E+01  1.8415857E-01  8.6753443E-03  1.3604370E-01  1.0000000E+00 -1.1102230E-16 -2.8865799E-15  1.5976390E-03 -2.0445708E-17 -9.6315670E-19
  2.7187500E+00  9.8764516E-01  0.0000000E+00  1.6633033E-01  1.9341402E-02  1.2611608E-01  2.1464155E+01  1.0000000E+00  1.0000000E+00 -3.8287630E-16 -2.7709397E+01  4.0740294E+00 -5.1365513E+00  2.8474419E+01 -4.7343158E+01 -3.1547329E+05  3.0749794E+01  0.0000000E+00  0.0000000E+00  0.0000000E+00  1.6633033E-01  1.9341402E-02  1.2611608E-01  2.1464155E+01  1.6633033E-01  1.9341402E-02  1.2611608E-01  1.0000000E+00 -1.1102230E-16 -2.8865799E-15  3.2170617E-03 -1.8466376E-17 -2.1473270E-18
  2.8125000E+00  9.8764516E-01  0.0000000E+00  9.7982219E-02  1.8131498E-02 -4.0673556E-02  2.0060144E+01  1.0000000E+00  1.0000000E+00 -3.8287630E-16 -1.4715769E+01 -1.1953919E+00  2.9444275E+01  3.2938551E+01 -3.4095374E+01 -5.0463122E+04  1.3464241E+01  0.0000000E+00  0.0000000E+00  0.0000000E+00  9.7982219E-02  1.8131498E-02 -4.0673556E-02  2.0060144E+01  9.7982219E-02  1.8131498E-02 -4.0673556E-02  1.0000000E+00 -1.1102230E-16 -2.8865799E-15  1.7765644E-03 -1.0878212E-17 -2.0130006E-18
  2.9062500E+00  9.8764516E-01  0.0000000E+00  7.6199147E-02 -1.3183852E-03  8.4639065E-05  1.7794781E+01  1.0000000E+00  1.0000000E+00 -3.8287630E-16  3.0924958E+01 -6.2825120E+00 -1.3940217E+01  3.4498588E+01  5.9240664E+01  1.1484229E+06 -4.7657632E+01 -1.7770516E+00  8.3298621E-01  8.3298621E-01  7.6199147E-02 -1.3183852E-03  8.4639065E-05  1.7794781E+01  7.6199147E-02 -1.3183852E-03  8.4639065E-05  1.0000000E+00 -1.1102230E-16 -2.8865799E-15 -1.0045983E-04 -8.4598047E-18  1.4637016E-19
  3.0000000E+00  9.8764516E-01  0.0000000E+00  9.7015748E-03 -6.2405677E-03  7.6966483E-02  1.5571101E+01  1.0000000E+00  1.0000000E+00 -3.8287630E-16 -9.3533261E+00  8.4537716E-01  3.8624712E+01  3.9750066E+01 -4.0646057E+00  1.7956787E+04 -9.6688771E+00 -3.5560419E+00  1.5628363E+00  1.5628363E+00  9.7015748E-03 -6.2405677E-03  7.6966483E-02  1.5571101E+01  9.7015748E-03 -6.2405677E-03  7.6966483E-02  1.0000000E+00 -1.1102230E-16 -2.8865799E-15 -6.0543334E-05 -1.0770912E-18  6.9284219E-19
  3.0937500E+00  9.8764516E-01  0.0000000E+00 -3.6337121E-02 -7.4029235E-03  4.5267021E-02  1.3529499E+01  1.0000000E+00  1.0000000E+00 -3.8287630E-16 -4.1808899E+00 -3.7121436E+00 -1.7345588E+01  1.8224415E+01  3.1202720E+00  1.1761136E+02 -2.7581145E+00  1.0390933E-01  1.0725097E-01  1.0725097E-01 -3.6337121E-02 -7.4029235E-03  4.5267021E-02  1.3529499E+01 -3.6337121E-02 -7.4029235E-03  4.5267021E-02  1.0000000E+00 -1.1102230E-16 -2.8865799E-15  2.6900093E-04  4.0342309E-18  8.2188961E-19
  3.1875000E+00  9.8764516E-01  0.0000000E+00  7.0236263E-02  1.1515585E-02  1.9426258E-02  1.0122462E+01  1.0000000E+00  1.0000000E+00 -3.8287630E-16 -5.0652711E+00 -4.0445934E-01 -4.0020445E+00  6.4681465E+00 -4.6035722E+00  3.5661704E+01  2.0629747E+00  2.6710478E+00 -1.0600293E+00 -1.0600293E+00  7.0236263E-02  1.1515585E-02  1.9426258E-02  1.0122462E+01  7.0236263E-02  1.1515585E-02  1.9426258E-02  1.0000000E+00 -1.1102230E-16 -2.8865799E-15  8.0881168E-04 -7.7977916E-18 -1.2784868E-18
  3.2812500E+00  9.8764516E-01  0.0000000E+00  5.1024979E-02  3.6344966E-02  3.5035775E-04  6.3869818E+00  1.0000000E+00  1.0000000E+00 -3.8287630E-16  1.2841693E+00 -3.8522071E-01  1.5461760E+01  1.5519778E+01 -3.7425181E-01  4.3590873E+02  2.7004853E+00  1.4523588E+00 -1.0376949E+00 -1.0376949E+00  5.1024979E-02  3.6344966E-02  3.5035775E-04  6.3869818E+00  5.1024979E-02  3.6344966E-02  3.5035775E-04  1.0000000E+00 -1.1102230E-16 -2.8865799E-15  1.8545011E-03 -5.6649106E-18 -4.0351018E-18
  3.3750000E+00  9.8764516E-01  0.0000000E+00  1.0234212E-01  2.9297279E-02  2.2124663E-02  2.6394389E+00  1.0000000E+00  1.0000000E+00 -3.8287630E-16  6.6936732E+00 -3.8295150E+00 -2.5121212E+01  2.6278237E+01  2.3283645E+00  1.1886738E+02 -1.5143118E+00  3.3298167E-01 -6.6985675E-01 -6.6985675E-01  1.0234212E-01  2.9297279E-02  2.2124663E-02  2.6394389E+00  1.0234212E-01  2.9297279E-02  2.2124663E-02  1.0000000E+00 -1.1102230E-16 -2.8865799E-15  2.9983458E-03 -1.1362258E-17 -3.2526514E-18
  3.4687500E+00  9.8764516E-01  0.0000000E+00  1.4981118E-01  8.7649519E-03  3.0737449E-02 -9.9566629E-01  1.0000000E+00  1.0000000E+00 -3.8287630E-16 -3.1676496E-01 -5.3970253E+00  1.4234144E+01  1.5226263E+01 -1.0405046E+01 -4.0738669E+03  5.7341225E+00  0.0000000E+00  0.0000000E+00  0.0000000E+00  1.4981118E-01  8.7649519E-03  3.0737449E-02 -9.9566629E-01  1.4981118E-01  8.7649519E-03  3.0737449E-02  1.0000000E+00 -1.1102230E-16 -2.8865799E-15  1.3130878E-03 -1.6632383E-17 -9.7310514E-19
  3.5625000E+00  9.8764516E-01  0.0000000E+00  2.0203748E-01 -1.6017761E-02  6.4514566E-02 -4.2182509E+00  1.0000000E+00  1.0000000E+00 -3.8287630E-16  9.4752039E+00 -5.0866286E+00 -2.2955040E+01  2.5349303E+01  1.2385417E+01  7.5867208E+03 -1.2281163E+01  3.5583380E-01  7.7987255E-02  7.7987255E-02  2.0203748E-01 -1.6017761E-02  6.4514566E-02 -4.2182509E+00  2.0203748E-01 -1.6017761E-02  6.4514566E-02  1.0000000E+00 -1.1102230E-16 -2.8865799E-15 -3.2361880E-03 -2.2430666E-17  1.7783287E-18
  3.6562500E+00  9.8764516E-01  0.0000000E+00  2.4624941E-01 -3.0279467E-03  1.1709306E-02 -7.9665434E+00  1.0000000E+00  1.0000000E+00 -3.8287630E-16 -2.8886151E+01  1.4692032E+00  1.8518724E+01  3.4344015E+01  1.8354432E+01  1.3084640E+05  2.5559748E+00  2.7505673E+00 -1.0444075E+00 -1.0444075E+00  2.4624941E-01 -3.0279467E-03  1.1709306E-02 -7.9665434E+00  2.4624941E-01 -3.0279467E-03  1.1709306E-02  1.0000000E+00 -1.1102230E-16 -2.8865799E-15 -7.4563009E-04 -2.7339177E-17  3.3616961E-19
  3.7500000E+00  9.8764516E-01  0.0000000E+00  1.4656745E-01  1.5726140E-02 -1.5186035E-01 -1.1022574E+01  1.0000000E+00  1.0000000E+00 -3.8287630E-16 -1.8516780E+01  3.4920000E+00  1.3163927E+01  2.2985956E+01  1.0704331E+01  1.5749985E+04  5.5398345E-01  1.2126426E+00 -1.1170181E+00 -1.1170181E+00  1.4656745E-01  1.5726140E-02 -1.5186035E-01 -1.1022574E+01  1.4656745E-01  1.5726140E-02 -1.5186035E-01  1.0000000E+00 -1.1102230E-16 -2.8865799E-15  2.3049402E-03 -1.6272256E-17 -1.7459523E-18
  3.8437500E+00  9.8764516E-01  0.0000000E+00  1.6440781E-01 -1.7884052E-02 -1.1396785E-01 -1.2986437E+01  1.0000000E+00  1.0000000E+00 -3.8287630E-16  2.8811792E+01 -3.0014308E+00 -1.3906071E+01  3.2132643E+01  6.9086840E+00  3.4854797E+04  8.6221573E+00 -2.5948902E+00  1.2887440E+00  1.2887440E+00  1.6440781E-01 -1.7884052E-02 -1.1396785E-01 -1.2986437E+01  1.6440781E-01 -1.7884052E-02 -1.1396785E-01  1.0000000E+00 -1.1102230E-16 -2.8865799E-15 -2.9402779E-03 -1.8252934E-17  1.9855286E-18
  3.9375000E+00  9.8764516E-01  0.0000000E+00  2.3749986E-01 -2.0612441E-02 -1.7557319E-02 -1.5396444E+01  1.0000000E+00  1.0000000E+00 -3.8287630E-16 -7.2288081E+00 -1.4689271E+00  8.9079935E-01  7.4301371E+00 -2.9543969E+00  1.1973547E+02  1.4095820E+00  2.4046389E+00 -6.7085640E-01 -6.7085640E-01  2.3749986E-01 -2.0612441E-02 -1.7557319E-02 -1.5396444E+01  2.3749986E-01 -2.0612441E-02 -1.7557319E-02  1.0000000E+00 -1.1102230E-16 -2.8865799E-15 -4.8954520E-03 -2.6367781E-17  2.2884407E-18
  4.0312500E+00  9.8764516E-01  0.0000000E+00  6.9660625E-02  2.9370960E-03 -1.2972966E-01 -1.7388429E+01  1.0000000E+00  1.0000000E+00 -3.8287630E-16 -3.1070588E+01  1.4300305E+00  4.8585230E+01  5.7688396E+01  3.1741566E+01  2.7151723E+06  3.3154939E+01  5.0022470E+00 -2.8459756E+00 -2.8459756E+00  6.9660625E-02  2.9370960E-03 -1.2972966E-01 -1.7388429E+01  6.9660625E-02  2.9370960E-03 -1.2972966E-01  1.0000000E+00 -1.1102230E-16 -2.8865799E-15  2.0459994E-04 -7.7338830E-18 -3.2608316E-19
  4.1250000E+00  9.8764516E-01  0.0000000E+00  4.4025690E-02 -1.4792915E-02 -1.5597127E-01 -1.8757574E+01  1.0000000E+00  1.0000000E+00 -3.8287630E-16  2.1130471E+01 -2.1974330E+00 -3.3827244E+01  3.9945062E+01 -6.2669552E+00  1.1408180E+05 -8.9367051E+00  4.5171668E+00 -2.2969608E+00 -2.2969608E+00  4.4025690E-02 -1.4792915E-02 -1.5597127E-01 -1.8757574E+01  4.4025690E-02 -1.4792915E-02 -1.5597127E-01  1.0000000E+00 -1.1102230E-16 -2.8865799E-15 -6.5126829E-04 -4.8878335E-18  1.6423435E-18
  4.2187500E+00  9.8764516E-01  0.0000000E+00  4.4842307E-02 -1.5726084E-02 -2.5421058E-02 -1.9633251E+01  1.0000000E+00  1.0000000E+00 -3.8287630E-16  9.9753449E+00  2.5893844E+00  3.6984759E+01  3.8393812E+01 -4.0577846E+00  5.3204143E+04  9.0426206E+00 -3.5175259E+00  2.3475585E+00  2.3475585E+00  4.4842307E-02 -1.5726084E-02 -2.5421058E-02 -1.9633251E+01  4.4842307E-02 -1.5726084E-02 -2.5421058E-02  1.0000000E+00 -1.1102230E-16 -2.8865799E-15 -7.0519389E-04 -4.9784962E-18  1.7459461E-18
  4.3125000E+00  9.8764516E-01  0.0000000E+00  8.4315674E-02  1.8242930E-03 -4.3676263E-02 -2.0051638E+01  1.0000000E+00  1.0000000E+00 -3.8287630E-16 -2.2776238E+01  3.1833237E+00 -4.1239675E+01  4.7218655E+01  3.0874114E+01  9.5447609E+05 -1.2213710E+01 -3.8696540E+00  1.9075355E+00  1.9075355E+00  8.4315674E-02  1.8242930E-03 -4.3676263E-02 -2.0051638E+01  8.4315674E-02  1.8242930E-03 -4.3676263E-02  1.0000000E+00 -1.1102230E-16 -2.8865799E-15  1.5381649E-04 -9.3609203E-18 -2.0253720E-19
  4.4062500E+00  9.8764516E-01  0.0000000E+00  1.1191842E-01  2.2155644E-02 -4.3743374E-02 -2.0265658E+01  1.0000000E+00  1.0000000E+00 -3.8287630E-16  2.1297776E+01 -8.5013237E+00  3.7629438E+01  4.4066340E+01  1.7166610E+01  4.4846884E+05 -1.2940111E+01 -3.9673156E+00  1.8741986E+00  1.8741986E+00  1.1191842E-01  2.2155644E-02 -4.3743374E-02 -2.0265658E+01  1.1191842E-01  2.2155644E-02 -4.3743374E-02  1.0000000E+00 -1.1102230E-16 -2.8865799E-15  2.4796247E-03 -1.2425441E-17 -2.4597706E-18
  4.5000000E+00  9.8764516E-01  0.0000000E+00  5.2437603E-02  2.9653239E-02  1.2195167E-01 -2.0054552E+01  1.0000000E+00  1.0000000E+00 -3.8287630E-16  3.2135648E+01 -1.0492926E+01 -1.6627221E+01  3.7673145E+01  6.2700855E+01  9.9771107E+05 -6.3202323E+01 -4.7108051E-01  6.3643941E-02  6.3643941E-02  5.2437603E-02  2.9653239E-02  1.2195167E-01 -2.0054552E+01  5.2437603E-02  2.9653239E-02  1.2195167E-01  1.0000000E+00 -1.1102230E-16 -2.8865799E-15  1.5549448E-03 -5.8217434E-18 -3.2921709E-18
  4.5937500E+00  9.8764516E-01  0.0000000E+00  1.0871373E-01  5.2109385E-03  2.2512871E-01 -1.9814593E+01  1.0000000E+00  1.0000000E+00 -3.8287630E-16  4.0565638E+00  9.1434277E-01  6.0526072E+00  7.3434179E+00  4.4062149E-01  1.4258022E+00 -7.3400537E-01 -4.7380610E-01 -2.1625147E-01 -2.1625147E-01  1.0871373E-01  5.2109385E-03  2.2512871E-01 -1.9814593E+01  1.0871373E-01  5.2109385E-03  2.2512871E-01  1.0000000E+00 -1.1102230E-16 -2.8865799E-15  5.6650057E-04 -1.2069649E-17 -5.7853039E-19
  4.6875000E+00  9.8764516E-01  0.0000000E+00  1.1210048E-02 -9.4884735E-03  1.8546272E-01 -1.8871057E+01  1.0000000E+00  1.0000000E+00 -3.8287630E-16 -1.4033874E+01  9.3861137E+00  2.7736734E+01  3.2471144E+01  8.7444732E+00  1.0596747E+04 -6.6372494E+00 -1.6777425E+00  6.3329669E-01  6.3329669E-01  1.1210048E-02 -9.4884735E-03  1.8546272E-01 -1.8871057E+01  1.1210048E-02 -9.4884735E-03  1.8546272E-01  1.0000000E+00 -1.1102230E-16 -2.8865799E-15 -1.0636625E-04 -1.2445654E-18  1.0534322E-18
  4.7812500E+00  9.8764516E-01  0.0000000E+00  5.9544704E-03 -1.0879301E-02  6.7258377E-02 -1.7632899E+01  1.0000000E+00  1.0000000E+00 -3.8287630E-16 -1.7875599E+01  7.9937602E+00 -2.0970534E+01  2.8691472E+01  1.8386384E+01  3.2535730E+04 -1.9809193E+01 -8.8082890E-01  4.3890347E-01  4.3890347E-01  5.9544704E-03 -1.0879301E-02  6.7258377E-02 -1.7632899E+01  5.9544704E-03 -1.0879301E-02  6.7258377E-02  1.0000000E+00 -1.1102230E-16 -2.8865799E-15 -6.4780476E-05 -6.6107901E-19  1.2078451E-18
  4.8750000E+00  9.8764516E-01  0.0000000E+00  8.2470627E-02 -1.3569493E-02  4.7200499E-02 -1.7123396E+01  1.0000000E+00  1.0000000E+00 -3.8287630E-16  1.5440258E+01 -3.2143334E+00  5.7061277E+00  1.6771803E+01  1.3263647E+01  1.1730951E+04 -1.4631097E+01  9.3271390E-01 -1.4324253E-01 -1.4324253E-01  8.2470627E-02 -1.3569493E-02  4.7200499E-02 -1.7123396E+01  8.2470627E-02 -1.3569493E-02  4.7200499E-02  1.0000000E+00 -1.1102230E-16 -2.8865799E-15 -1.1190846E-03 -9.1560789E-18  1.5065163E-18
  4.9687500E+00  9.8764516E-01  0.0000000E+00  1.8981678E-02 -6.9315058E-03  1.2182115E-01 -1.6787719E+01  1.0000000E+00  1.0000000E+00 -3.8287630E-16  5.3475280E+00 -6.5149140E+00  1.9580106E+01  2.1317146E+01  8.7666301E+00  3.2116564E+03 -9.1392350E+00  8.0750634E-01 -1.2752865E-02 -1.2752865E-02  1.8981678E-02 -6.9315058E-03  1.2182115E-01 -1.6787719E+01  1.8981678E-02 -6.9315058E-03  1.2182115E-01  1.0000000E+00 -1.1102230E-16 -2.8865799E-15 -1.3157161E-04 -2.1073896E-18  7.6955173E-19
  5.0625000E+00  9.8764516E-01  0.0000000E+00 -7.4664318E-02 -3.0425848E-03  5.4043083E-02 -1.5776775E+01  1.0000000E+00  1.0000000E+00 -3.8287630E-16 -2.7281157E+01  3.1431390E+00  9.7098224E+00  2.9127676E+01  1.4186398E+01  5.4648291E+04  3.4734042E+00  1.9906626E+00 -1.2123542E+00 -1.2123542E+00 -7.4664318E-02 -3.0425848E-03  5.4043083E-02 -1.5776775E+01 -7.4664318E-02 -3.0425848E-03  5.4043083E-02  1.0000000E+00 -1.1102230E-16 -2.8865799E-15  2.2717252E-04  8.2894045E-18  3.3779477E-19
  5.1562500E+00  9.8764516E-01  0.0000000E+00  4.2712639E-02 -1.0528143E-02  4.0092472E-03 -1.4714330E+01  1.0000000E+00  1.0000000E+00 -3.8287630E-16  1.1551196E+01 -2.8826908E+00 -3.6304243E+01  3.8206519E+01 -8.8962792E-03  1.1965831E+04 -3.3937195E+00  2.8182033E+00 -1.3242727E+00 -1.3242727E+00  4.2712639E-02 -1.0528143E-02  4.0092472E-03 -1.4714330E+01  4.2712639E-02 -1.0528143E-02  4.0092472E-03  1.0000000E+00 -1.1102230E-16 -2.8865799E-15 -4.4968479E-04 -4.7420556E-18  1.1688587E-18
  5.2500000E+00  9.8764516E-01  0.0000000E+00 -9.0000747E-04  1.3326639E-03  1.1397810E-01 -1.3562327E+01  1.0000000E+00  1.0000000E+00 -3.8287630E-16  1.9794672E+01 -6.8725145E+00  5.2389972E+01  5.6424903E+01  3.5192003E+01  2.1692433E+05 -3.8703577E+01  1.3857925E+00 -2.9815858E-01 -2.9815858E-01 -9.0000747E-04  1.3326639E-03  1.1397810E-01 -1.3562327E+01 -9.0000747E-04  1.3326639E-03  1.1397810E-01  1.0000000E+00 -1.1102230E-16 -2.8865799E-15 -1.1994075E-06  9.9920901E-20 -1.4795542E-19
  5.3437500E+00  9.8764516E-01  0.0000000E+00 -1.0392873E-02  1.2441993E-02  1.5241165E-01 -1.2149908E+01  1.0000000E+00  1.0000000E+00 -3.8287630E-16 -9.1131132E+00  9.3424284E-01 -4.2013918E+01  4.3001057E+01 -2.6320131E-02  2.0747554E+03 -3.9736741E+00  2.1156827E+00 -9.8256404E-01 -9.8256404E-01 -1.0392873E-02  1.2441993E-02  1.5241165E-01 -1.2149908E+01 -1.0392873E-02  1.2441993E-02  1.5241165E-01  1.0000000E+00 -1.1102230E-16 -2.8865799E-15 -1.2930805E-04  1.1538407E-18 -1.3813387E-18
  5.4375000E+00  9.8764516E-01  0.0000000E+00  5.1516182E-02  1.8001605E-02  8.0370965E-02 -1.0546698E+01  1.0000000E+00  1.0000000E+00 -3.8287630E-16 -1.0068385E+01  6.8271028E+00  2.6601809E+01  2.9251289E+01  1.2896819E+01  1.4758635E+04 -1.3591819E+01 -1.3095716E+00  3.2488531E-01  3.2488531E-01  5.1516182E-02  1.8001605E-02  8.0370965E-02 -1.0546698E+01  5.1516182E-02  1.8001605E-02  8.0370965E-02  1.0000000E+00 -1.1102230E-16 -2.8865799E-15  9.2737397E-04 -5.7194452E-18 -1.9985796E-18