TITLE = "DNS FLOW Y-SLICE"
variables = "X", "Y", "Z", "U", "V", "W", "P", "T", "D", "H", "Vorx","Vory","Vorz","VorM","Qcr","Delta","Lambda2", "SWIrlStrengthR1","SWIrlStrengthR2","SWIrlStrengthI2", "Uprime","vprime","wprime","pprime","g1prime","g2prime","g3prime", "Tprime", "Dprime","Mprime","uvprime", "UDprime", "vDprime"
ZONE T = "           0  0.00000E+00 ", I =   65, J =    1, K =   65, F =POINT
  0.0000000E+00  8.6460502E-01  0.0000000E+00  2.3048065E-01  4.3791730E-02 -8.1344496E-03  1.3762788E+01  1.0000000E+00  1.0000000E+00 -3.8287630E-16  4.3710078E+00  6.0574656E+00  5.5882472E+00  9.3288319E+00  9.8958982E+00  4.5753112E+03 -8.8289924E+00 -4.1918549E-01  3.4757144E-01  3.4757144E-01  2.3048065E-01  4.3791730E-02 -8.1344496E-03  1.3762788E+01  2.3048065E-01  4.3791730E-02 -8.1344496E-03  1.0000000E+00 -1.1102230E-16 -2.8865799E-15  1.0093146E-02 -2.5588492E-17 -4.8618587E-18
  9.3750000E-02  8.6460502E-01  0.0000000E+00  3.7577078E-01  3.2221918E-02 -5.6314771E-02  1.4853867E+01  1.0000000E+00  1.0000000E+00 -3.8287630E-16  8.6088100E+00  1.7631297E+00 -1.2754874E+01  1.5488933E+01  4.5728845E+00  3.0686111E+04  6.0339581E+00 -2.9305666E+00  1.1933496E+00  1.1933496E+00  3.7577078E-01  3.2221918E-02 -5.6314771E-02  1.4853867E+01  3.7577078E-01  3.2221918E-02 -5.6314771E-02  1.0000000E+00 -1.1102230E-16 -2.8865799E-15  1.2108055E-02 -4.1718937E-17 -3.5773516E-18
  1.8750000E-01  8.6460502E-01  0.0000000E+00  4.4133053E-01 -3.7797582E-02  7.7854548E-02  1.3766487E+01  1.0000000E+00  1.0000000E+00 -3.8287630E-16  9.0534502E+00 -1.0841098E+00  1.1401440E+01  1.4599078E+01 -1.4476385E+00  4.1144643E+04  9.6933090E+00  3.2030433E+00 -2.0825535E+00 -2.0825535E+00  4.4133053E-01 -3.7797582E-02  7.7854548E-02  1.3766487E+01  4.4133053E-01 -3.7797582E-02  7.7854548E-02  1.0000000E+00 -1.1102230E-16 -2.8865799E-15 -1.6681227E-02 -4.8997532E-17  4.1963745E-18
  2.8125000E-01  8.6460502E-01  0.0000000E+00  2.8004276E-01 -5.8770550E-02  1.7747253E-01  1.3519231E+01  1.0000000E+00  1.0000000E+00 -3.8287630E-16  4.6765140E+00 -2.6880732E-01  1.0331871E+01  1.1344144E+01  2.9988612E+00  3.3381387E+03 -1.5901366E+00  1.8345581E+00 -8.2969040E-01 -8.2969040E-01  2.8004276E-01 -5.8770550E-02  1.7747253E-01  1.3519231E+01  2.8004276E-01 -5.8770550E-02  1.7747253E-01  1.0000000E+00 -1.1102230E-16 -2.8865799E-15 -1.6458267E-02 -3.1090992E-17  6.5248417E-18
  3.7500000E-01  8.6460502E-01  0.0000000E+00  3.8744333E-01 -7.4629304E-02  1.2861326E-01  1.3480605E+01  1.0000000E+00  1.0000000E+00 -3.8287630E-16 -9.3169098E+00  5.6535831E+00 -1.5891750E+01  1.9269550E+01  2.4670719E+01  1.7072124E+05 -1.8259994E+01 -2.0608404E+00  1.2063113E+00  1.2063113E+00  3.8744333E-01 -7.4629304E-02  1.2861326E-01  1.3480605E+01  3.8744333E-01 -7.4629304E-02  1.2861326E-01  1.0000000E+00 -1.1102230E-16 -2.8865799E-15 -2.8914626E-02 -4.3014851E-17  8.2855172E-18
  4.6875000E-01  8.6460502E-01  0.0000000E+00  5.6968893E-01 -9.7213639E-02 -6.9351501E-03  1.2937193E+01  1.0000000E+00  1.0000000E+00 -3.8287630E-16 -8.1899340E+00  3.7315410E+00  2.3372707E+00  9.2985081E+00  1.7063668E+01  3.3837556E+04 -1.5112547E+01  1.0963180E+00 -7.5034853E-01 -7.5034853E-01  5.6968893E-01 -9.7213639E-02 -6.9351501E-03  1.2937193E+01  5.6968893E-01 -9.7213639E-02 -6.9351501E-03  1.0000000E+00 -1.1102230E-16 -2.8865799E-15 -5.5381534E-02 -6.3248177E-17  1.0792882E-17
  5.6250000E-01  8.6460502E-01  0.0000000E+00  6.0891944E-01 -1.3396426E-01 -3.0236971E-02  1.1904076E+01  1.0000000E+00  1.0000000E+00 -3.8287630E-16  3.6432264E-01 -8.7038080E-01 -1.5409907E+00  1.8069162E+00 -1.0709280E+01 -1.3041007E+03  7.1411444E+00  0.0000000E+00  0.0000000E+00  0.0000000E+00  6.0891944E-01 -1.3396426E-01 -3.0236971E-02  1.1904076E+01  6.0891944E-01 -1.3396426E-01 -3.0236971E-02  1.0000000E+00 -1.1102230E-16 -2.8865799E-15 -8.1573440E-02 -6.7603638E-17  1.4873020E-17
  6.5625000E-01  8.6460502E-01  0.0000000E+00  4.5347219E-01 -1.0600187E-01 -2.1407098E-02  1.1010235E+01  1.0000000E+00  1.0000000E+00 -3.8287630E-16 -5.1666552E+00  5.0708594E-01  2.3037563E+01  2.3615266E+01  2.4971841E+01  9.7120025E+04 -2.8256098E+01  1.6924901E+00 -3.5991843E-01 -3.5991843E-01  4.5347219E-01 -1.0600187E-01 -2.1407098E-02  1.1010235E+01  4.5347219E-01 -1.0600187E-01 -2.1407098E-02  1.0000000E+00 -1.1102230E-16 -2.8865799E-15 -4.8068899E-02 -5.0345526E-17  1.1768571E-17
  7.5000000E-01  8.6460502E-01  0.0000000E+00  2.3105282E-01 -8.1511561E-03 -7.4415199E-02  1.1658750E+01  1.0000000E+00  1.0000000E+00 -3.8287630E-16 -4.7826811E+00  1.9117603E+00  6.5793186E+00  8.3556148E+00  4.9343424E+00  1.3818980E+03 -5.9365602E+00  1.4116303E+00 -1.0411975E-02 -1.0411975E-02  2.3105282E-01 -8.1511561E-03 -7.4415199E-02  1.1658750E+01  2.3105282E-01 -8.1511561E-03 -7.4415199E-02  1.0000000E+00 -1.1102230E-16 -2.8865799E-15 -1.8833476E-03 -2.5652016E-17  9.0496011E-19
  8.4375000E-01  8.6460502E-01  0.0000000E+00  3.0475110E-01  3.4095216E-02 -1.2101214E-01  1.4080629E+01  1.0000000E+00  1.0000000E+00 -3.8287630E-16 -1.7687311E+00 -1.6874142E+00 -8.1623227E+00  8.5205216E+00 -5.5825539E+00 -4.4098241E+02  4.8658736E+00  0.0000000E+00  0.0000000E+00  0.0000000E+00  3.0475110E-01  3.4095216E-02 -1.2101214E-01  1.4080629E+01  3.0475110E-01  3.4095216E-02 -1.2101214E-01  1.0000000E+00 -1.1102230E-16 -2.8865799E-15  1.0390555E-02 -3.3834169E-17 -3.7853293E-18
  9.3750000E-01  8.6460502E-01  0.0000000E+00  3.8149453E-01  5.2828023E-02 -1.9759523E-01  1.7392496E+01  1.0000000E+00  1.0000000E+00 -3.8287630E-16 -7.1846774E+00  5.2045499E+00  5.5280243E+00  1.0453037E+01  1.5097604E+01  1.8100069E+04 -1.4520812E+01  7.4141466E-01 -4.6994804E-01 -4.6994804E-01  3.8149453E-01  5.2828023E-02 -1.9759523E-01  1.7392496E+01  3.8149453E-01  5.2828023E-02 -1.9759523E-01  1.0000000E+00 -1.1102230E-16 -2.8865799E-15  2.0153602E-02 -4.2354401E-17 -5.8650887E-18
  1.0312500E+00  8.6460502E-01  0.0000000E+00  3.7210007E-01  3.9199171E-02 -2.6712680E-01  1.9577801E+01  1.0000000E+00  1.0000000E+00 -3.8287630E-16 -2.4698956E+00  3.5945808E+00  4.5292180E-02  4.3615877E+00  6.8306440E-01  1.2892114E+01 -2.2225926E-01  5.7849198E-01 -3.4635409E-01 -3.4635409E-01  3.7210007E-01  3.9199171E-02 -2.6712680E-01  1.9577801E+01  3.7210007E-01  3.9199171E-02 -2.6712680E-01  1.0000000E+00 -1.1102230E-16 -2.8865799E-15  1.4586014E-02 -4.1311407E-17 -4.3519822E-18
  1.1250000E+00  8.6460502E-01  0.0000000E+00  3.3840666E-01  6.0661878E-02 -2.8625166E-01  1.9368172E+01  1.0000000E+00  1.0000000E+00 -3.8287630E-16 -5.1310426E+00 -4.3904150E+00  8.9454032E+00  1.1208193E+01  9.2036321E+00  2.8247712E+04 -1.2204046E+01  2.1840346E+00 -1.0912956E+00 -1.0912956E+00  3.3840666E-01  6.0661878E-02 -2.8625166E-01  1.9368172E+01  3.3840666E-01  6.0661878E-02 -2.8625166E-01  1.0000000E+00 -1.1102230E-16 -2.8865799E-15  2.0528384E-02 -3.7570686E-17 -6.7348214E-18
  1.2187500E+00  8.6460502E-01  0.0000000E+00  3.4504469E-01  8.7506790E-02 -2.4619700E-01  1.9403773E+01  1.0000000E+00  1.0000000E+00 -3.8287630E-16  5.6919434E+00 -2.0119593E+00 -3.6014892E+00  7.0297173E+00  1.1059013E+00  6.2496937E+01 -7.6195140E-01 -9.9970085E-01  1.9595641E-01  1.9595641E-01  3.4504469E-01  8.7506790E-02 -2.4619700E-01  1.9403773E+01  3.4504469E-01  8.7506790E-02 -2.4619700E-01  1.0000000E+00 -1.1102230E-16 -2.8865799E-15  3.0193753E-02 -3.8307656E-17 -9.7152053E-18
  1.3125000E+00  8.6460502E-01  0.0000000E+00  3.6242235E-01  4.3956910E-02 -1.2368803E-01  2.2174312E+01  1.0000000E+00  1.0000000E+00 -3.8287630E-16  9.0247939E+00 -3.6771446E+00  5.8715777E+00  1.1377334E+01  7.9621133E+00  1.7522954E+04 -1.0073725E+00  1.8440261E+00 -1.1578577E+00 -1.1578577E+00  3.6242235E-01  4.3956910E-02 -1.2368803E-01  2.2174312E+01  3.6242235E-01  4.3956910E-02 -1.2368803E-01  1.0000000E+00 -1.1102230E-16 -2.8865799E-15  1.5930967E-02 -4.0236964E-17 -4.8801974E-18
  1.4062500E+00  8.6460502E-01  0.0000000E+00  3.4445348E-01  2.4012791E-02 -1.2030833E-01  2.4078996E+01  1.0000000E+00  1.0000000E+00 -3.8287630E-16 -7.8580618E+00  4.8089291E+00  6.6291154E-01  9.2365787E+00  3.7842172E+00  7.2619603E+03 -7.5590494E+00 -2.3908530E+00  6.0127701E-01  6.0127701E-01  3.4445348E-01  2.4012791E-02 -1.2030833E-01  2.4078996E+01  3.4445348E-01  2.4012791E-02 -1.2030833E-01  1.0000000E+00 -1.1102230E-16 -2.8865799E-15  8.2712896E-03 -3.8242019E-17 -2.6659554E-18
  1.5000000E+00  8.6460502E-01  0.0000000E+00  4.3881018E-01  7.8862857E-04 -1.2558644E-01  2.2602678E+01  1.0000000E+00  1.0000000E+00 -3.8287630E-16  9.4568629E+00  3.2411650E+00 -4.6524299E+00  1.1026446E+01  4.9325570E+00  1.3087714E+05 -3.6578929E+00 -3.8018527E+00  1.7658596E+00  1.7658596E+00  4.3881018E-01  7.8862857E-04 -1.2558644E-01  2.2602678E+01  4.3881018E-01  7.8862857E-04 -1.2558644E-01  1.0000000E+00 -1.1102230E-16 -2.8865799E-15  3.4605825E-04 -4.8717717E-17 -8.7555360E-20
  1.5937500E+00  8.6460502E-01  0.0000000E+00  4.3029046E-01 -2.1325899E-02 -1.5103931E-04  2.0952012E+01  1.0000000E+00  1.0000000E+00 -3.8287630E-16  1.1291058E+01  1.1453118E+00  1.0871086E+01  1.5715605E+01  2.5000114E+01  5.7551348E+05 -2.5283058E+01  3.7258530E+00 -1.7011178E+00 -1.7011178E+00  4.3029046E-01 -2.1325899E-02 -1.5103931E-04  2.0952012E+01  4.3029046E-01 -2.1325899E-02 -1.5103931E-04  1.0000000E+00 -1.1102230E-16 -2.8865799E-15 -9.1763309E-03 -4.7771837E-17  2.3676504E-18
  1.6875000E+00  8.6460502E-01  0.0000000E+00  4.6136251E-01 -3.8554093E-02  3.2128274E-02  2.1323803E+01  1.0000000E+00  1.0000000E+00 -3.8287630E-16 -6.3577309E-01  4.1593472E+00 -8.7952117E+00  9.7498782E+00 -2.6112827E+00  1.8381168E+04  8.9863873E+00  3.1303983E+00 -1.7566172E+00 -1.7566172E+00  4.6136251E-01 -3.8554093E-02  3.2128274E-02  2.1323803E+01  4.6136251E-01 -3.8554093E-02  3.2128274E-02  1.0000000E+00 -1.1102230E-16 -2.8865799E-15 -1.7787413E-02 -5.1221528E-17  4.2803642E-18
  1.7812500E+00  8.6460502E-01  0.0000000E+00  4.9595767E-01 -6.3833783E-02  1.5327757E-02  2.2962376E+01  1.0000000E+00  1.0000000E+00 -3.8287630E-16  2.6803760E+00  1.4938737E+00  9.5948461E+00  1.0073587E+01 -3.5954365E-01  3.0821673E+02  1.5242831E+00  1.3893179E+00 -9.7068940E-01 -9.7068940E-01  4.9595767E-01 -6.3833783E-02  1.5327757E-02  2.2962376E+01  4.9595767E-01 -6.3833783E-02  1.5327757E-02  1.0000000E+00 -1.1102230E-16 -2.8865799E-15 -3.1658854E-02 -5.5062363E-17  7.0869735E-18
  1.8750000E+00  8.6460502E-01  0.0000000E+00  3.2983492E-01 -5.3441104E-02  6.9543275E-02  2.4080004E+01  1.0000000E+00  1.0000000E+00 -3.8287630E-16  4.0576061E+00  1.4869109E-01  1.2827444E+01  1.3454724E+01  1.2074674E+00  3.8106833E+03  2.5765335E-01  2.1776095E+00 -9.7797313E-01 -9.7797313E-01  3.2983492E-01 -5.3441104E-02  6.9543275E-02  2.4080004E+01  3.2983492E-01 -5.3441104E-02  6.9543275E-02  1.0000000E+00 -1.1102230E-16 -2.8865799E-15 -1.7626742E-02 -3.6619032E-17  5.9331544E-18
  1.9687500E+00  8.6460502E-01  0.0000000E+00  3.8652235E-01 -6.5236385E-02  3.8289275E-02  2.3951323E+01  1.0000000E+00  1.0000000E+00 -3.8287630E-16 -9.0327210E+00  2.2710848E+00 -1.3613299E+01  1.6494538E+01  1.6270632E+01  1.8814447E+05 -5.7099922E+00 -3.0303174E+00  1.5971971E+00  1.5971971E+00  3.8652235E-01 -6.5236385E-02  3.8289275E-02  2.3951323E+01  3.8652235E-01 -6.5236385E-02  3.8289275E-02  1.0000000E+00 -1.1102230E-16 -2.8865799E-15 -2.5215321E-02 -4.2912601E-17  7.2426937E-18
  2.0625000E+00  8.6460502E-01  0.0000000E+00  4.8650221E-01 -7.0184157E-02 -5.8671451E-02  2.3601532E+01  1.0000000E+00  1.0000000E+00 -3.8287630E-16 -5.2919501E+00 -3.5043615E+00  8.3572896E+00  1.0494264E+01  6.3176268E+00  7.1000294E+03 -8.8506585E+00  1.8919405E+00 -5.8260581E-01 -5.8260581E-01  4.8650221E-01 -7.0184157E-02 -5.8671451E-02  2.3601532E+01  4.8650221E-01 -7.0184157E-02 -5.8671451E-02  1.0000000E+00 -1.1102230E-16 -2.8865799E-15 -3.4144747E-02 -5.4012595E-17  7.7920067E-18
  2.1562500E+00  8.6460502E-01  0.0000000E+00  4.9034529E-01 -3.1081440E-02 -6.9450652E-02  2.4090474E+01  1.0000000E+00  1.0000000E+00 -3.8287630E-16  1.1559179E+00 -3.3425969E+00 -3.1843252E+00  4.7590994E+00 -1.9442994E+00 -2.4578643E+01  2.2377033E+00  0.0000000E+00  0.0000000E+00  0.0000000E+00  4.9034529E-01 -3.1081440E-02 -6.9450652E-02  2.4090474E+01  4.9034529E-01 -3.1081440E-02 -6.9450652E-02  1.0000000E+00 -1.1102230E-16 -2.8865799E-15 -1.5240638E-02 -5.4439263E-17  3.4507331E-18
  2.2500000E+00  8.6460502E-01  0.0000000E+00  4.0712160E-01 -1.5656274E-02 -8.1259018E-03  2.4879332E+01  1.0000000E+00  1.0000000E+00 -3.8287630E-16  5.6924796E+00 -4.0671134E+00  1.6974916E+01  1.8360107E+01  5.8812945E+00  6.2933367E+04 -3.4879908E+00  3.0616142E+00 -1.5856849E+00 -1.5856849E+00  4.0712160E-01 -1.5656274E-02 -8.1259018E-03  2.4879332E+01  4.0712160E-01 -1.5656274E-02 -8.1259018E-03  1.0000000E+00 -1.1102230E-16 -2.8865799E-15 -6.3740072E-03 -4.5199577E-17  1.7381956E-18
  2.3437500E+00  8.6460502E-01  0.0000000E+00  2.7239633E-01  5.8111696E-03  6.7026741E-02  2.6410951E+01  1.0000000E+00  1.0000000E+00 -3.8287630E-16  3.8513121E+00 -1.6715953E+00  2.4839081E+00  4.8781795E+00  2.6209536E+00  1.0233854E+02 -1.9184648E+00 -2.5436511E-01  3.7335452E-01  3.7335452E-01  2.7239633E-01  5.8111696E-03  6.7026741E-02  2.6410951E+01  2.7239633E-01  5.8111696E-03  6.7026741E-02  1.0000000E+00 -1.1102230E-16 -2.8865799E-15  1.5829413E-03 -3.0242068E-17 -6.4516943E-19
  2.4375000E+00  8.6460502E-01  0.0000000E+00  2.4677134E-01  2.7520392E-02  7.3606420E-03  2.8566483E+01  1.0000000E+00  1.0000000E+00 -3.8287630E-16 -1.1909954E+01  2.0403239E+00  5.8639800E+00  1.3431165E+01  1.8446821E+01  2.4749759E+05 -8.3627051E+00  2.9425859E+00 -1.8234000E+00 -1.8234000E+00  2.4677134E-01  2.7520392E-02  7.3606420E-03  2.8566483E+01  2.4677134E-01  2.7520392E-02  7.3606420E-03  1.0000000E+00 -1.1102230E-16 -2.8865799E-15  6.7912438E-03 -2.7397122E-17 -3.0553772E-18
  2.5312500E+00  8.6460502E-01  0.0000000E+00  3.3811205E-01  1.4060364E-03 -6.0765956E-02  2.8814648E+01  1.0000000E+00  1.0000000E+00 -3.8287630E-16 -1.6924154E+00 -5.7419279E+00 -9.9856469E+00  1.1642472E+01  1.4832068E+00  2.4292056E+04  2.6430052E+00  3.0096105E+00 -1.4110928E+00 -1.4110928E+00  3.3811205E-01  1.4060364E-03 -6.0765956E-02  2.8814648E+01  3.3811205E-01  1.4060364E-03 -6.0765956E-02  1.0000000E+00 -1.1102230E-16 -2.8865799E-15  4.7539785E-04 -3.7537978E-17 -1.5610140E-19
  2.6250000E+00  8.6460502E-01  0.0000000E+00  3.5436423E-01  1.4941946E-02 -5.7729452E-02  2.7390436E+01  1.0000000E+00  1.0000000E+00 -3.8287630E-16 -5.1259329E+00 -4.3520904E+00  1.3881853E+01  1.5424711E+01  9.5479806E+00  2.4315514E+04 -1.2781030E+01  2.1328153E+00 -9.1331029E-01 -9.1331029E-01  3.5436423E-01  1.4941946E-02 -5.7729452E-02  2.7390436E+01  3.5436423E-01  1.4941946E-02 -5.7729452E-02  1.0000000E+00 -1.1102230E-16 -2.8865799E-15  5.2948911E-03 -3.9342333E-17 -1.6588892E-18
  2.7187500E+00  8.6460502E-01  0.0000000E+00  2.1037021E-01  6.7750009E-02 -1.0155172E-01  2.4863139E+01  1.0000000E+00  1.0000000E+00 -3.8287630E-16 -4.3902643E+00 -1.0781227E+00  7.3224366E+00  8.6055126E+00  4.2351025E+00  4.9312642E+03 -8.4147508E-01  1.5600749E+00 -1.0964025E+00 -1.0964025E+00  2.1037021E-01  6.7750009E-02 -1.0155172E-01  2.4863139E+01  2.1037021E-01  6.7750009E-02 -1.0155172E-01  1.0000000E+00 -1.1102230E-16 -2.8865799E-15  1.4252583E-02 -2.3355785E-17 -7.5217620E-18
  2.8125000E+00  8.6460502E-01  0.0000000E+00  1.6906294E-01  6.5419976E-02 -2.9538390E-02  2.2057291E+01  1.0000000E+00  1.0000000E+00 -3.8287630E-16  1.1615856E+01 -5.9861399E+00  2.6160346E+00  1.3326876E+01  2.3800967E+01  1.0378559E+05 -2.0341363E+01  1.7522853E+00 -6.8955035E-01 -6.8955035E-01  1.6906294E-01  6.5419976E-02 -2.9538390E-02  2.2057291E+01  1.6906294E-01  6.5419976E-02 -2.9538390E-02  1.0000000E+00 -1.1102230E-16 -2.8865799E-15  1.1060093E-02 -1.8769756E-17 -7.2630764E-18
  2.9062500E+00  8.6460502E-01  0.0000000E+00  2.4870783E-01  5.3503071E-02  3.9024453E-02  2.0445020E+01  1.0000000E+00  1.0000000E+00 -3.8287630E-16 -2.1243533E+00  3.3956885E+00 -5.6184190E+00  6.9000152E+00 -3.6297523E+00 -4.4820123E+01  3.7584616E+00  0.0000000E+00  0.0000000E+00  0.0000000E+00  2.4870783E-01  5.3503071E-02  3.9024453E-02  2.0445020E+01  2.4870783E-01  5.3503071E-02  3.9024453E-02  1.0000000E+00 -1.1102230E-16 -2.8865799E-15  1.3306633E-02 -2.7612116E-17 -5.9400341E-18
  3.0000000E+00  8.6460502E-01  0.0000000E+00  3.0599908E-01  2.6692515E-02  1.5133022E-03  1.8390402E+01  1.0000000E+00  1.0000000E+00 -3.8287630E-16 -1.0135201E+00  4.5264574E-01  5.3486449E+00  5.4626105E+00 -5.0284511E+00 -4.5023652E+02  3.1086960E+00  0.0000000E+00  0.0000000E+00  0.0000000E+00  3.0599908E-01  2.6692515E-02  1.5133022E-03  1.8390402E+01  3.0599908E-01  2.6692515E-02  1.5133022E-03  1.0000000E+00 -1.1102230E-16 -2.8865799E-15  8.1678850E-03 -3.3972722E-17 -2.9634645E-18
  3.0937500E+00  8.6460502E-01  0.0000000E+00  2.5715450E-01  3.2243140E-02 -2.2060013E-02  1.5839323E+01  1.0000000E+00  1.0000000E+00 -3.8287630E-16 -3.9192801E+00 -3.7348276E+00  5.3413392E+00  7.6052350E+00  5.4176010E-01  3.6941659E+03 -2.7308329E+00  2.4866755E+00 -7.4607335E-01 -7.4607335E-01  2.5715450E-01  3.2243140E-02 -2.2060013E-02  1.5839323E+01  2.5715450E-01  3.2243140E-02 -2.2060013E-02  1.0000000E+00 -1.1102230E-16 -2.8865799E-15  8.2914684E-03 -2.8549884E-17 -3.5797076E-18
  3.1875000E+00  8.6460502E-01  0.0000000E+00  3.3715839E-01  6.8868903E-02 -1.3849915E-01  1.4231603E+01  1.0000000E+00  1.0000000E+00 -3.8287630E-16 -1.4395225E+01  1.0113719E+00 -7.0890538E+00  1.6077937E+01  2.9540227E+01  4.9662293E+05 -2.0087118E+01 -2.9151734E+00  1.7190806E+00  1.7190806E+00  3.3715839E-01  6.8868903E-02 -1.3849915E-01  1.4231603E+01  3.3715839E-01  6.8868903E-02 -1.3849915E-01  1.0000000E+00 -1.1102230E-16 -2.8865799E-15  2.3219728E-02 -3.7432100E-17 -7.6459842E-18
  3.2812500E+00  8.6460502E-01  0.0000000E+00  3.3782260E-01  1.1644986E-01 -2.2942751E-01  1.2455906E+01  1.0000000E+00  1.0000000E+00 -3.8287630E-16 -1.5270230E+00 -2.2339009E+00  1.3280386E+01  1.3553257E+01  1.2333823E+01  1.5297435E+04 -7.5115879E+00 -1.0469593E+00  8.1003511E-01  8.1003511E-01  3.3782260E-01  1.1644986E-01 -2.2942751E-01  1.2455906E+01  3.3782260E-01  1.1644986E-01 -2.2942751E-01  1.0000000E+00 -1.1102230E-16 -2.8865799E-15  3.9339393E-02 -3.7505843E-17 -1.2928531E-17
  3.3750000E+00  8.6460502E-01  0.0000000E+00  3.3274336E-01  1.6079918E-01 -1.7790886E-01  7.9911415E+00  1.0000000E+00  1.0000000E+00 -3.8287630E-16  5.7808391E+00 -5.8275095E+00 -6.4833993E+00  1.0460040E+01  1.1854346E+01  2.8104086E+04 -1.3962115E+01 -1.9884049E+00  7.8085995E-01  7.8085995E-01  3.3274336E-01  1.6079918E-01 -1.7790886E-01  7.9911415E+00  3.3274336E-01  1.6079918E-01 -1.7790886E-01  1.0000000E+00 -1.1102230E-16 -2.8865799E-15  5.3504860E-02 -3.6941934E-17 -1.7852296E-17
  3.4687500E+00  8.6460502E-01  0.0000000E+00  5.1989245E-01  9.3146628E-02 -2.2082782E-02  1.1869740E+00  1.0000000E+00  1.0000000E+00 -3.8287630E-16  1.7323369E+01 -8.8737659E+00 -8.1943715E+00  2.1118489E+01  9.3240610E+01  3.5183272E+06 -9.5822071E+01 -1.3602863E+00  2.9939598E-01  2.9939598E-01  5.1989245E-01  9.3146628E-02 -2.2082782E-02  1.1869740E+00  5.1989245E-01  9.3146628E-02 -2.2082782E-02  1.0000000E+00 -1.1102230E-16 -2.8865799E-15  4.8426228E-02 -5.7719657E-17 -1.0341353E-17
  3.5625000E+00  8.6460502E-01  0.0000000E+00  5.5551591E-01  3.2619749E-02  1.6652894E-01 -4.3586963E+00  1.0000000E+00  1.0000000E+00 -3.8287630E-16  1.4741965E+01 -4.9925428E+00  8.5987937E+00  1.7781740E+01  5.9056679E+01  1.7281716E+06 -6.1787152E+01  2.9188119E+00 -1.2066794E+00 -1.2066794E+00  5.5551591E-01  3.2619749E-02  1.6652894E-01 -4.3586963E+00  5.5551591E-01  3.2619749E-02  1.6652894E-01  1.0000000E+00 -1.1102230E-16 -2.8865799E-15  1.8120790E-02 -6.1674656E-17 -3.6215196E-18
  3.6562500E+00  8.6460502E-01  0.0000000E+00  5.2043884E-01  4.8979170E-02  1.2417305E-01 -7.2786759E+00  1.0000000E+00  1.0000000E+00 -3.8287630E-16 -7.9657561E+00  4.4606230E+00  5.0149761E-01  9.1434089E+00 -4.8991672E+01 -4.5657527E+05  4.7656558E+01  0.0000000E+00  0.0000000E+00  0.0000000E+00  5.2043884E-01  4.8979170E-02  1.2417305E-01 -7.2786759E+00  5.2043884E-01  4.8979170E-02  1.2417305E-01  1.0000000E+00 -1.1102230E-16 -2.8865799E-15  2.5490662E-02 -5.7780318E-17 -5.4377803E-18
  3.7500000E+00  8.6460502E-01  0.0000000E+00  4.6867594E-01  4.4063005E-02 -4.0031860E-02 -9.9745371E+00  1.0000000E+00  1.0000000E+00 -3.8287630E-16 -3.4760215E+00 -1.4097759E+00  9.6450242E+00  1.0348753E+01 -2.3499814E+01 -2.5782248E+04  1.0022684E+01  0.0000000E+00  0.0000000E+00  0.0000000E+00  4.6867594E-01  4.4063005E-02 -4.0031860E-02 -9.9745371E+00  4.6867594E-01  4.4063005E-02 -4.0031860E-02  1.0000000E+00 -1.1102230E-16 -2.8865799E-15  2.0651270E-02 -5.2033481E-17 -4.8919763E-18
  3.8437500E+00  8.6460502E-01  0.0000000E+00  4.3838061E-01 -7.0192676E-03  3.3850893E-02 -1.4009676E+01  1.0000000E+00  1.0000000E+00 -3.8287630E-16  1.6210184E+01 -6.6482658E+00 -1.9483353E+00  1.7628542E+01  5.7345576E+01  8.2177923E+05 -5.3717919E+01 -7.7883801E-01  5.2006460E-01  5.2006460E-01  4.3838061E-01 -7.0192676E-03  3.3850893E-02 -1.4009676E+01  4.3838061E-01 -7.0192676E-03  3.3850893E-02  1.0000000E+00 -1.1102230E-16 -2.8865799E-15 -3.0771109E-03 -4.8670025E-17  7.7929526E-19
  3.9375000E+00  8.6460502E-01  0.0000000E+00  3.4220363E-01 -4.0495988E-03  1.4234501E-01 -1.6307666E+01  1.0000000E+00  1.0000000E+00 -3.8287630E-16  1.5349938E-01  4.4118530E-01  1.6655301E+01  1.6661850E+01  7.7375337E+00  6.8697840E+03 -9.5141691E+00 -1.4514352E+00  6.5472024E-01  6.5472024E-01  3.4220363E-01 -4.0495988E-03  1.4234501E-01 -1.6307666E+01  3.4220363E-01 -4.0495988E-03  1.4234501E-01  1.0000000E+00 -1.1102230E-16 -2.8865799E-15 -1.3857874E-03 -3.7992235E-17  4.4959578E-19
  4.0312500E+00  8.6460502E-01  0.0000000E+00  2.9100972E-01 -3.4304095E-03  1.1743859E-01 -1.6699651E+01  1.0000000E+00  1.0000000E+00 -3.8287630E-16 -3.4398709E+00 -3.5994867E+00 -7.5356174E+00  9.0318628E+00  5.4007182E+00  3.0242631E+03 -4.1727393E+00 -1.1421828E+00  8.3991229E-01  8.3991229E-01  2.9100972E-01 -3.4304095E-03  1.1743859E-01 -1.6699651E+01  2.9100972E-01 -3.4304095E-03  1.1743859E-01  1.0000000E+00 -1.1102230E-16 -2.8865799E-15 -9.9828252E-04 -3.2308569E-17  3.8085197E-19
  4.1250000E+00  8.6460502E-01  0.0000000E+00  3.9129134E-01  2.0952430E-02  7.4046361E-02 -1.7811315E+01  1.0000000E+00  1.0000000E+00 -3.8287630E-16 -5.5466897E+00 -3.1249742E-01  2.3897542E+00  6.0476728E+00  3.6869340E+00  4.8131717E+02 -4.0941420E+00  1.0735236E+00 -5.9949759E-02 -5.9949759E-02  3.9129134E-01  2.0952430E-02  7.4046361E-02 -1.7811315E+01  3.9129134E-01  2.0952430E-02  7.4046361E-02  1.0000000E+00 -1.1102230E-16 -2.8865799E-15  8.1985045E-03 -4.3442066E-17 -2.3261870E-18
  4.2187500E+00  8.6460502E-01  0.0000000E+00  3.6119236E-01  7.3424577E-02  1.7662271E-02 -1.8508927E+01  1.0000000E+00  1.0000000E+00 -3.8287630E-16 -4.6451828E+00  3.4018253E-01  6.4185711E+00  7.9304163E+00  3.4704752E+00  3.6280974E+03 -1.0356092E+00  1.5921757E+00 -1.0163980E+00 -1.0163980E+00  3.6119236E-01  7.3424577E-02  1.7662271E-02 -1.8508927E+01  3.6119236E-01  7.3424577E-02  1.7662271E-02  1.0000000E+00 -1.1102230E-16 -2.8865799E-15  2.6520396E-02 -4.0100408E-17 -8.1517656E-18
  4.3125000E+00  8.6460502E-01  0.0000000E+00  4.2700664E-01  3.0196996E-02 -2.9887553E-04 -1.9453252E+01  1.0000000E+00  1.0000000E+00 -3.8287630E-16 -8.5366621E-01 -3.5308707E+00 -8.9850185E+00  9.6915608E+00  2.5983521E+00  2.0048576E+03  1.3555479E+00  1.3489683E+00 -1.0741186E+00 -1.0741186E+00  4.2700664E-01  3.0196996E-02 -2.9887553E-04 -1.9453252E+01  4.2700664E-01  3.0196996E-02 -2.9887553E-04  1.0000000E+00 -1.1102230E-16 -2.8865799E-15  1.2894318E-02 -4.7407260E-17 -3.3525400E-18
  4.4062500E+00  8.6460502E-01  0.0000000E+00  4.7212199E-01 -1.0381041E-02  1.9849086E-02 -2.0882343E+01  1.0000000E+00  1.0000000E+00 -3.8287630E-16 -5.4547066E-01 -5.7924899E+00  8.3185601E+00  1.0151301E+01 -1.7535514E+00  1.1673888E+04  1.8664575E+00 -3.1995813E+00  1.2236300E+00  1.2236300E+00  4.7212199E-01 -1.0381041E-02  1.9849086E-02 -2.0882343E+01  4.7212199E-01 -1.0381041E-02  1.9849086E-02  1.0000000E+00 -1.1102230E-16 -2.8865799E-15 -4.9011176E-03 -5.2416071E-17  1.1525270E-18
  4.5000000E+00  8.6460502E-01  0.0000000E+00  5.1276307E-01 -4.5105758E-02  6.5117420E-02 -2.1236483E+01  1.0000000E+00  1.0000000E+00 -3.8287630E-16  2.8445398E+00 -4.8774562E+00 -8.4632450E+00  1.0173864E+01  8.1722770E+00  5.3335581E+03 -8.2444323E+00  1.3406443E+00 -3.7667920E-01 -3.7667920E-01  5.1276307E-01 -4.5105758E-02  6.5117420E-02 -2.1236483E+01  5.1276307E-01 -4.5105758E-02  6.5117420E-02  1.0000000E+00 -1.1102230E-16 -2.8865799E-15 -2.3128567E-02 -5.6928137E-17  5.0077451E-18
  4.5937500E+00  8.6460502E-01  0.0000000E+00  5.5763351E-01 -3.3571869E-02  1.7827803E-02 -2.1498174E+01  1.0000000E+00  1.0000000E+00 -3.8287630E-16 -8.9231601E+00  1.1054478E+00  9.5487363E+00  1.3115760E+01  5.2588312E+00  1.1510060E+04 -2.7193868E-01  2.3431523E+00 -7.7165430E-01 -7.7165430E-01  5.5763351E-01 -3.3571869E-02  1.7827803E-02 -2.1498174E+01  5.5763351E-01 -3.3571869E-02  1.7827803E-02  1.0000000E+00 -1.1102230E-16 -2.8865799E-15 -1.8720799E-02 -6.1909756E-17  3.7272262E-18
  4.6875000E+00  8.6460502E-01  0.0000000E+00  4.5655888E-01  1.9925786E-02 -1.0555580E-01 -2.1047296E+01  1.0000000E+00  1.0000000E+00 -3.8287630E-16 -6.1089286E+00  3.0325896E+00  7.2700965E+00  9.9684458E+00  8.1247719E+00  7.0547083E+03 -1.9241739E+00  1.0592189E+00 -9.9820686E-01 -9.9820686E-01  4.5655888E-01  1.9925786E-02 -1.0555580E-01 -2.1047296E+01  4.5655888E-01  1.9925786E-02 -1.0555580E-01  1.0000000E+00 -1.1102230E-16 -2.8865799E-15  9.0972947E-03 -5.0688218E-17 -2.2122067E-18
  4.7812500E+00  8.6460502E-01  0.0000000E+00  4.8188578E-01 -3.3670819E-02 -6.4044333E-02 -1.9883277E+01  1.0000000E+00  1.0000000E+00 -3.8287630E-16  8.0292343E+00 -2.5585317E+00 -5.5070761E+00  1.0066905E+01 -4.8120965E+00 -1.4807104E+02  5.6715308E+00  0.0000000E+00  0.0000000E+00  0.0000000E+00  4.8188578E-01 -3.3670819E-02 -6.4044333E-02 -1.9883277E+01  4.8188578E-01 -3.3670819E-02 -6.4044333E-02  1.0000000E+00 -1.1102230E-16 -2.8865799E-15 -1.6225489E-02 -5.3500069E-17  3.7382118E-18
  4.8750000E+00  8.6460502E-01  0.0000000E+00  5.5266692E-01 -4.9210401E-02 -7.2283880E-03 -1.9276790E+01  1.0000000E+00  1.0000000E+00 -3.8287630E-16 -4.4262322E+00 -1.0815345E+00  3.3480285E+00  5.6542500E+00 -5.1184699E-01 -6.7951538E-01 -1.1999667E-01  0.0000000E+00  0.0000000E+00  0.0000000E+00  5.5266692E-01 -4.9210401E-02 -7.2283880E-03 -1.9276790E+01  5.5266692E-01 -4.9210401E-02 -7.2283880E-03  1.0000000E+00 -1.1102230E-16 -2.8865799E-15 -2.7196961E-02 -6.1358354E-17  5.4634520E-18
  4.9687500E+00  8.6460502E-01  0.0000000E+00  4.1053604E-01  1.1274680E-02 -1.2434515E-01 -1.9299870E+01  1.0000000E+00  1.0000000E+00 -3.8287630E-16 -1.1663104E+01  1.1882331E+00  1.7153516E+01  2.0776982E+01  2.0591389E+01  9.8792412E+05  4.4442645E+00  4.2788988E+00 -2.5404913E+00 -2.5404913E+00  4.1053604E-01  1.1274680E-02 -1.2434515E-01 -1.9299870E+01  4.1053604E-01  1.1274680E-02 -1.2434515E-01  1.0000000E+00 -1.1102230E-16 -2.8865799E-15  4.6286623E-03 -4.5578656E-17 -1.2517409E-18
  5.0625000E+00  8.6460502E-01  0.0000000E+00  3.7006240E-01 -1.8680881E-02 -1.1972544E-01 -1.9343069E+01  1.0000000E+00  1.0000000E+00 -3.8287630E-16  8.8016727E+00 -2.5849806E+00 -8.6071954E+00  1.2579164E+01 -5.2607259E+00  9.2343466E+01  4.0156877E+00  2.6767321E+00 -1.3292807E+00 -1.3292807E+00  3.7006240E-01 -1.8680881E-02 -1.1972544E-01 -1.9343069E+01  3.7006240E-01 -1.8680881E-02 -1.1972544E-01  1.0000000E+00 -1.1102230E-16 -2.8865799E-15 -6.9130916E-03 -4.1085180E-17  2.0739944E-18
  5.1562500E+00  8.6460502E-01  0.0000000E+00  3.6038675E-01 -1.4873906E-02  9.8138849E-03 -1.7719700E+01  1.0000000E+00  1.0000000E+00 -3.8287630E-16  3.8065563E+00  2.9147850E+00  1.3787239E+01  1.4597048E+01  5.3668323E+00  3.2771078E+03 -2.3359035E+00 -9.9895519E-01  1.0854030E+00  1.0854030E+00  3.6038675E-01 -1.4873906E-02  9.8138849E-03 -1.7719700E+01  3.6038675E-01 -1.4873906E-02  9.8138849E-03  1.0000000E+00 -1.1102230E-16 -2.8865799E-15 -5.3603586E-03 -4.0010966E-17  1.6513353E-18
  5.2500000E+00  8.6460502E-01  0.0000000E+00  4.0234981E-01  2.5000522E-02 -4.5654808E-02 -1.5210265E+01  1.0000000E+00  1.0000000E+00 -3.8287630E-16 -1.1642449E+01  3.6468447E+00 -1.2387432E+01  1.7386621E+01  2.3269133E+01  3.4760958E+05 -1.3114237E+01 -3.1603187E+00  1.5749871E+00  1.5749871E+00  4.0234981E-01  2.5000522E-02 -4.5654808E-02 -1.5210265E+01  4.0234981E-01  2.5000522E-02 -4.5654808E-02  1.0000000E+00 -1.1102230E-16 -2.8865799E-15  1.0058955E-02 -4.4669802E-17 -2.7756156E-18
  5.3437500E+00  8.6460502E-01  0.0000000E+00  4.3045862E-01  4.4266211E-02 -7.4114596E-02 -1.2559986E+01  1.0000000E+00  1.0000000E+00 -3.8287630E-16  6.1614004E+00 -8.2809970E+00  1.4736863E+01  1.7992023E+01  2.1534452E+01  8.3007797E+04 -2.0581577E+01 -1.7695409E+00  7.0446943E-01  7.0446943E-01  4.3045862E-01  4.4266211E-02 -7.4114596E-02 -1.2559986E+01  4.3045862E-01  4.4266211E-02 -7.4114596E-02  1.0000000E+00 -1.1102230E-16 -2.8865799E-15  1.9054772E-02 -4.7790507E-17 -4.9145366E-18
  5.4375000E+00  8.6460502E-01  0.0000000E+00  3.8723678E-01  3.2130774E-02  8.4268800E-02 -1.0329813E+01  1.0000000E+00  1.0000000E+00 -3.8287630E-16  1.2805684E+01 -1.0640168E+01 -5.6883435E+00  1.7594202E+01  5.8287356E+01  7.9243857E+05 -5.8151419E+01 -3.0603078E-01 -5.2618283E-02 -5.2618283E-02  3.8723678E-01  3.2130774E-02  8.4268800E-02 -1.0329813E+01  3.8723678E-01  3.2130774E-02  8.4268800E-02  1.0000000E+00 -1.1102230E-16 -2.8865799E-15  1.2442218E-02 -4.2991919E-17 -3.5672325E-18